# vtk DataFile Version 3.0
Arquivo gerado por PZ
ASCII

DATASET UNSTRUCTURED_GRID
POINTS 200 float
0 0 0
0 10 0
2 0 0
2 10 0
2 0 0
2 10 0
4 0 0
4 10 0
4 0 0
4 10 0
6 0 0
6 10 0
6 0 0
6 10 0
8 0 0
8 10 0
8 0 0
8 10 0
10 0 0
10 10 0
10 0 0
10 10 0
12 0 0
12 10 0
12 0 0
12 10 0
14 0 0
14 10 0
14 0 0
14 10 0
16 0 0
16 10 0
16 0 0
16 10 0
18 0 0
18 10 0
18 0 0
18 10 0
20 0 0
20 10 0
20 0 0
20 10 0
22 0 0
22 10 0
22 0 0
22 10 0
24 0 0
24 10 0
24 0 0
24 10 0
26 0 0
26 10 0
26 0 0
26 10 0
28 0 0
28 10 0
28 0 0
28 10 0
30 0 0
30 10 0
30 0 0
30 10 0
32 0 0
32 10 0
32 0 0
32 10 0
34 0 0
34 10 0
34 0 0
34 10 0
36 0 0
36 10 0
36 0 0
36 10 0
38 0 0
38 10 0
38 0 0
38 10 0
40 0 0
40 10 0
40 0 0
40 10 0
42 0 0
42 10 0
42 0 0
42 10 0
44 0 0
44 10 0
44 0 0
44 10 0
46 0 0
46 10 0
46 0 0
46 10 0
48 0 0
48 10 0
48 0 0
48 10 0
50 0 0
50 10 0
50 0 0
50 10 0
52 0 0
52 10 0
52 0 0
52 10 0
54 0 0
54 10 0
54 0 0
54 10 0
56 0 0
56 10 0
56 0 0
56 10 0
58 0 0
58 10 0
58 0 0
58 10 0
60 0 0
60 10 0
60 0 0
60 10 0
62 0 0
62 10 0
62 0 0
62 10 0
64 0 0
64 10 0
64 0 0
64 10 0
66 0 0
66 10 0
66 0 0
66 10 0
68 0 0
68 10 0
68 0 0
68 10 0
70 0 0
70 10 0
70 0 0
70 10 0
72 0 0
72 10 0
72 0 0
72 10 0
74 0 0
74 10 0
74 0 0
74 10 0
76 0 0
76 10 0
76 0 0
76 10 0
78 0 0
78 10 0
78 0 0
78 10 0
80 0 0
80 10 0
80 0 0
80 10 0
82 0 0
82 10 0
82 0 0
82 10 0
84 0 0
84 10 0
84 0 0
84 10 0
86 0 0
86 10 0
86 0 0
86 10 0
88 0 0
88 10 0
88 0 0
88 10 0
90 0 0
90 10 0
90 0 0
90 10 0
92 0 0
92 10 0
92 0 0
92 10 0
94 0 0
94 10 0
94 0 0
94 10 0
96 0 0
96 10 0
96 0 0
96 10 0
98 0 0
98 10 0
98 0 0
98 10 0
100 0 0
100 10 0

CELLS 50 250
4 0 2 3 1
4 4 6 7 5
4 8 10 11 9
4 12 14 15 13
4 16 18 19 17
4 20 22 23 21
4 24 26 27 25
4 28 30 31 29
4 32 34 35 33
4 36 38 39 37
4 40 42 43 41
4 44 46 47 45
4 48 50 51 49
4 52 54 55 53
4 56 58 59 57
4 60 62 63 61
4 64 66 67 65
4 68 70 71 69
4 72 74 75 73
4 76 78 79 77
4 80 82 83 81
4 84 86 87 85
4 88 90 91 89
4 92 94 95 93
4 96 98 99 97
4 100 102 103 101
4 104 106 107 105
4 108 110 111 109
4 112 114 115 113
4 116 118 119 117
4 120 122 123 121
4 124 126 127 125
4 128 130 131 129
4 132 134 135 133
4 136 138 139 137
4 140 142 143 141
4 144 146 147 145
4 148 150 151 149
4 152 154 155 153
4 156 158 159 157
4 160 162 163 161
4 164 166 167 165
4 168 170 171 169
4 172 174 175 173
4 176 178 179 177
4 180 182 183 181
4 184 186 187 185
4 188 190 191 189
4 192 194 195 193
4 196 198 199 197

CELL_TYPES 50
9
9
9
9
9
9
9
9
9
9
9
9
9
9
9
9
9
9
9
9
9
9
9
9
9
9
9
9
9
9
9
9
9
9
9
9
9
9
9
9
9
9
9
9
9
9
9
9
9
9

POINT_DATA 200
SCALARS p float
LOOKUP_TABLE default
10 
10 
10.4 
10.4 
10.4 
10.4 
10.8 
10.8 
10.8 
10.8 
11.2 
11.2 
11.2 
11.2 
11.6 
11.6 
11.6 
11.6 
12 
12 
12 
12 
12.4 
12.4 
12.4 
12.4 
12.8 
12.8 
12.8 
12.8 
13.2 
13.2 
13.2 
13.2 
13.6 
13.6 
13.6 
13.6 
14 
14 
14 
14 
14.4 
14.4 
14.4 
14.4 
14.8 
14.8 
14.8 
14.8 
15.2 
15.2 
15.2 
15.2 
15.6 
15.6 
15.6 
15.6 
16 
16 
16 
16 
16.4 
16.4 
16.4 
16.4 
16.8 
16.8 
16.8 
16.8 
17.2 
17.2 
17.2 
17.2 
17.6 
17.6 
17.6 
17.6 
18 
18 
18 
18 
18.4 
18.4 
18.4 
18.4 
18.8 
18.8 
18.8 
18.8 
19.2 
19.2 
19.2 
19.2 
19.6 
19.6 
19.6 
19.6 
20 
20 
20 
20 
20.4 
20.4 
20.4 
20.4 
20.8 
20.8 
20.8 
20.8 
21.2 
21.2 
21.2 
21.2 
21.6 
21.6 
21.6 
21.6 
22 
22 
22 
22 
22.4 
22.4 
22.4 
22.4 
22.8 
22.8 
22.8 
22.8 
23.2 
23.2 
23.2 
23.2 
23.6 
23.6 
23.6 
23.6 
24 
24 
24 
24 
24.4 
24.4 
24.4 
24.4 
24.8 
24.8 
24.8 
24.8 
25.2 
25.2 
25.2 
25.2 
25.6 
25.6 
25.6 
25.6 
26 
26 
26 
26 
26.4 
26.4 
26.4 
26.4 
26.8 
26.8 
26.8 
26.8 
27.2 
27.2 
27.2 
27.2 
27.6 
27.6 
27.6 
27.6 
28 
28 
28 
28 
28.4 
28.4 
28.4 
28.4 
28.8 
28.8 
28.8 
28.8 
29.2 
29.2 
29.2 
29.2 
29.6 
29.6 
29.6 
29.6 
30 
30 

VECTORS q float
-0.2 1e-11 0 
-0.2 -1e-11 0 
-0.2 1.04e-11 0 
-0.2 -1.04e-11 0 
-0.2 1.04e-11 0 
-0.2 -1.04e-11 0 
-0.2 1.08e-11 0 
-0.2 -1.08e-11 0 
-0.2 1.08e-11 0 
-0.2 -1.08e-11 0 
-0.2 1.12e-11 0 
-0.2 -1.12e-11 0 
-0.2 1.12e-11 0 
-0.2 -1.12e-11 0 
-0.2 1.16e-11 0 
-0.2 -1.16e-11 0 
-0.2 1.16e-11 0 
-0.2 -1.16e-11 0 
-0.2 1.2e-11 0 
-0.2 -1.2e-11 0 
-0.2 1.2e-11 0 
-0.2 -1.2e-11 0 
-0.2 1.24e-11 0 
-0.2 -1.24e-11 0 
-0.2 1.24e-11 0 
-0.2 -1.24e-11 0 
-0.2 1.28e-11 0 
-0.2 -1.28e-11 0 
-0.2 1.28e-11 0 
-0.2 -1.28e-11 0 
-0.2 1.32e-11 0 
-0.2 -1.32e-11 0 
-0.2 1.32e-11 0 
-0.2 -1.32e-11 0 
-0.2 1.36e-11 0 
-0.2 -1.36e-11 0 
-0.2 1.36e-11 0 
-0.2 -1.36e-11 0 
-0.2 1.4e-11 0 
-0.2 -1.4e-11 0 
-0.2 1.4e-11 0 
-0.2 -1.4e-11 0 
-0.2 1.44e-11 0 
-0.2 -1.44e-11 0 
-0.2 1.44e-11 0 
-0.2 -1.44e-11 0 
-0.2 1.48e-11 0 
-0.2 -1.48e-11 0 
-0.2 1.48e-11 0 
-0.2 -1.48e-11 0 
-0.2 1.52e-11 0 
-0.2 -1.52e-11 0 
-0.2 1.52e-11 0 
-0.2 -1.52e-11 0 
-0.2 1.56e-11 0 
-0.2 -1.56e-11 0 
-0.2 1.56e-11 0 
-0.2 -1.56e-11 0 
-0.2 1.6e-11 0 
-0.2 -1.6e-11 0 
-0.2 1.6e-11 0 
-0.2 -1.6e-11 0 
-0.2 1.64e-11 0 
-0.2 -1.64e-11 0 
-0.2 1.64e-11 0 
-0.2 -1.64e-11 0 
-0.2 1.68e-11 0 
-0.2 -1.68e-11 0 
-0.2 1.68e-11 0 
-0.2 -1.68e-11 0 
-0.2 1.72e-11 0 
-0.2 -1.72e-11 0 
-0.2 1.72e-11 0 
-0.2 -1.72e-11 0 
-0.2 1.76e-11 0 
-0.2 -1.76e-11 0 
-0.2 1.76e-11 0 
-0.2 -1.76e-11 0 
-0.2 1.8e-11 0 
-0.2 -1.8e-11 0 
-0.2 1.8e-11 0 
-0.2 -1.8e-11 0 
-0.2 1.84e-11 0 
-0.2 -1.84e-11 0 
-0.2 1.84e-11 0 
-0.2 -1.84e-11 0 
-0.2 1.88e-11 0 
-0.2 -1.88e-11 0 
-0.2 1.88e-11 0 
-0.2 -1.88e-11 0 
-0.2 1.92e-11 0 
-0.2 -1.92e-11 0 
-0.2 1.92e-11 0 
-0.2 -1.92e-11 0 
-0.2 1.96e-11 0 
-0.2 -1.96e-11 0 
-0.2 1.96e-11 0 
-0.2 -1.96e-11 0 
-0.2 2e-11 0 
-0.2 -2e-11 0 
-0.2 2e-11 0 
-0.2 -2e-11 0 
-0.2 2.04e-11 0 
-0.2 -2.04e-11 0 
-0.2 2.04e-11 0 
-0.2 -2.04e-11 0 
-0.2 2.08e-11 0 
-0.2 -2.08e-11 0 
-0.2 2.08e-11 0 
-0.2 -2.08e-11 0 
-0.2 2.12e-11 0 
-0.2 -2.12e-11 0 
-0.2 2.12e-11 0 
-0.2 -2.12e-11 0 
-0.2 2.16e-11 0 
-0.2 -2.16e-11 0 
-0.2 2.16e-11 0 
-0.2 -2.16e-11 0 
-0.2 2.2e-11 0 
-0.2 -2.2e-11 0 
-0.2 2.2e-11 0 
-0.2 -2.2e-11 0 
-0.2 2.24e-11 0 
-0.2 -2.24e-11 0 
-0.2 2.24e-11 0 
-0.2 -2.24e-11 0 
-0.2 2.28e-11 0 
-0.2 -2.28e-11 0 
-0.2 2.28e-11 0 
-0.2 -2.28e-11 0 
-0.2 2.32e-11 0 
-0.2 -2.32e-11 0 
-0.2 2.32e-11 0 
-0.2 -2.32e-11 0 
-0.2 2.36e-11 0 
-0.2 -2.36e-11 0 
-0.2 2.36e-11 0 
-0.2 -2.36e-11 0 
-0.2 2.4e-11 0 
-0.2 -2.4e-11 0 
-0.2 2.4e-11 0 
-0.2 -2.4e-11 0 
-0.2 2.44e-11 0 
-0.2 -2.44e-11 0 
-0.2 2.44e-11 0 
-0.2 -2.44e-11 0 
-0.2 2.48e-11 0 
-0.2 -2.48e-11 0 
-0.2 2.48e-11 0 
-0.2 -2.48e-11 0 
-0.2 2.52e-11 0 
-0.2 -2.52e-11 0 
-0.2 2.52e-11 0 
-0.2 -2.52e-11 0 
-0.2 2.56e-11 0 
-0.2 -2.56e-11 0 
-0.2 2.56e-11 0 
-0.2 -2.56e-11 0 
-0.2 2.6e-11 0 
-0.2 -2.6e-11 0 
-0.2 2.6e-11 0 
-0.2 -2.6e-11 0 
-0.2 2.64e-11 0 
-0.2 -2.64e-11 0 
-0.2 2.64e-11 0 
-0.2 -2.64e-11 0 
-0.2 2.68e-11 0 
-0.2 -2.68e-11 0 
-0.2 2.68e-11 0 
-0.2 -2.68e-11 0 
-0.2 2.72e-11 0 
-0.2 -2.72e-11 0 
-0.2 2.72e-11 0 
-0.2 -2.72e-11 0 
-0.2 2.76e-11 0 
-0.2 -2.76e-11 0 
-0.2 2.76e-11 0 
-0.2 -2.76e-11 0 
-0.2 2.8e-11 0 
-0.2 -2.8e-11 0 
-0.2 2.8e-11 0 
-0.2 -2.8e-11 0 
-0.2 2.84e-11 0 
-0.2 -2.84e-11 0 
-0.2 2.84e-11 0 
-0.2 -2.84e-11 0 
-0.2 2.88e-11 0 
-0.2 -2.88e-11 0 
-0.2 2.88e-11 0 
-0.2 -2.88e-11 0 
-0.2 2.92e-11 0 
-0.2 -2.92e-11 0 
-0.2 2.92e-11 0 
-0.2 -2.92e-11 0 
-0.2 2.96e-11 0 
-0.2 -2.96e-11 0 
-0.2 2.96e-11 0 
-0.2 -2.96e-11 0 
-0.2 3e-11 0 
-0.2 -3e-11 0 

