# vtk DataFile Version 3.0
Arquivo gerado por PZ
ASCII

DATASET UNSTRUCTURED_GRID
POINTS 416 float
312456 7.4834e+06 1735.53
312456 7.484e+06 1737.58
311924 7.4834e+06 1707.04
311924 7.484e+06 1759.65
312456 7.4834e+06 1988.16
312456 7.484e+06 1977.31
311924 7.4834e+06 1959.37
311924 7.484e+06 2013.07
312987 7.4834e+06 1723
312987 7.484e+06 1709.12
312456 7.4834e+06 1735.53
312456 7.484e+06 1737.58
312987 7.4834e+06 1960.78
312987 7.484e+06 1943.4
312456 7.4834e+06 1988.16
312456 7.484e+06 1977.31
313519 7.4834e+06 1714.13
313519 7.484e+06 1726.61
312987 7.4834e+06 1723
312987 7.484e+06 1709.12
313519 7.4834e+06 1889.1
313519 7.484e+06 1936.63
312987 7.4834e+06 1960.78
312987 7.484e+06 1943.4
314051 7.4834e+06 1708.11
314051 7.484e+06 1760.5
313519 7.4834e+06 1714.13
313519 7.484e+06 1726.61
314051 7.4834e+06 1893.48
314051 7.484e+06 1997.11
313519 7.4834e+06 1889.1
313519 7.484e+06 1936.63
314582 7.4834e+06 1780.13
314582 7.484e+06 1768
314051 7.4834e+06 1708.11
314051 7.484e+06 1760.5
314582 7.4834e+06 1980.48
314582 7.484e+06 1990.1
314051 7.4834e+06 1893.48
314051 7.484e+06 1997.11
315114 7.4834e+06 1775.68
315114 7.484e+06 1809.25
314582 7.4834e+06 1780.13
314582 7.484e+06 1768
315114 7.4834e+06 1956.47
315114 7.484e+06 1993.86
314582 7.4834e+06 1980.48
314582 7.484e+06 1990.1
315646 7.4834e+06 1819.19
315114 7.484e+06 1809.25
315114 7.4834e+06 1775.68
315114 7.4834e+06 1775.68
315646 7.4834e+06 1986.31
315114 7.484e+06 1993.86
315114 7.4834e+06 1956.47
315114 7.4834e+06 1956.47
312456 7.4834e+06 1735.53
311924 7.4834e+06 1707.04
312456 7.4828e+06 1742.67
311924 7.4828e+06 1710.62
312456 7.4834e+06 1988.16
311924 7.4834e+06 1959.37
312456 7.4828e+06 1954.1
311924 7.4828e+06 1946.05
312987 7.4834e+06 1723
312456 7.4834e+06 1735.53
312987 7.4828e+06 1735.09
312456 7.4828e+06 1742.67
312987 7.4834e+06 1960.78
312456 7.4834e+06 1988.16
312987 7.4828e+06 1950.88
312456 7.4828e+06 1954.1
313519 7.4834e+06 1714.13
312987 7.4834e+06 1723
313519 7.4828e+06 1741.47
312987 7.4828e+06 1735.09
313519 7.4834e+06 1889.1
312987 7.4834e+06 1960.78
313519 7.4828e+06 1989.14
312987 7.4828e+06 1950.88
314051 7.4834e+06 1708.11
313519 7.4834e+06 1714.13
314051 7.4828e+06 1780
313519 7.4828e+06 1741.47
314051 7.4834e+06 1893.48
313519 7.4834e+06 1889.1
314051 7.4828e+06 1994.86
313519 7.4828e+06 1989.14
314582 7.4834e+06 1780.13
314051 7.4834e+06 1708.11
314582 7.4828e+06 1762.69
314051 7.4828e+06 1780
314582 7.4834e+06 1980.48
314051 7.4834e+06 1893.48
314582 7.4828e+06 1971.27
314051 7.4828e+06 1994.86
315114 7.4834e+06 1775.68
314582 7.4834e+06 1780.13
315114 7.4828e+06 1790.84
314582 7.4828e+06 1762.69
315114 7.4834e+06 1956.47
314582 7.4834e+06 1980.48
315114 7.4828e+06 1979.84
314582 7.4828e+06 1971.27
315646 7.4834e+06 1819.19
315114 7.4834e+06 1775.68
315646 7.4828e+06 1829.79
315114 7.4828e+06 1790.84
315646 7.4834e+06 1986.31
315114 7.4834e+06 1956.47
315646 7.4828e+06 1962.19
315114 7.4828e+06 1979.84
312456 7.4828e+06 1742.67
311924 7.4828e+06 1710.62
312456 7.4822e+06 1744.57
311924 7.4822e+06 1764.58
312456 7.4828e+06 1954.1
311924 7.4828e+06 1946.05
312456 7.4822e+06 1958.54
311924 7.4822e+06 2034.98
312987 7.4828e+06 1735.09
312456 7.4828e+06 1742.67
312987 7.4822e+06 1735.53
312456 7.4822e+06 1744.57
312987 7.4828e+06 1950.88
312456 7.4828e+06 1954.1
312987 7.4822e+06 1906.37
312456 7.4822e+06 1958.54
313519 7.4828e+06 1741.47
312987 7.4828e+06 1735.09
313519 7.4822e+06 1726.75
312987 7.4822e+06 1735.53
313519 7.4828e+06 1989.14
312987 7.4828e+06 1950.88
313519 7.4822e+06 1933.51
312987 7.4822e+06 1906.37
314051 7.4828e+06 1780
313519 7.4828e+06 1741.47
314051 7.4822e+06 1688.3
313519 7.4822e+06 1726.75
314051 7.4828e+06 1994.86
313519 7.4828e+06 1989.14
314051 7.4822e+06 1915.36
313519 7.4822e+06 1933.51
314582 7.4828e+06 1762.69
314051 7.4828e+06 1780
314582 7.4822e+06 1716.46
314051 7.4822e+06 1688.3
314582 7.4828e+06 1971.27
314051 7.4828e+06 1994.86
314582 7.4822e+06 1976.45
314051 7.4822e+06 1915.36
315114 7.4828e+06 1790.84
314582 7.4828e+06 1762.69
315114 7.4822e+06 1763.67
314582 7.4822e+06 1716.46
315114 7.4828e+06 1979.84
314582 7.4828e+06 1971.27
315114 7.4822e+06 1966.65
314582 7.4822e+06 1976.45
315646 7.4828e+06 1829.79
315114 7.4828e+06 1790.84
315646 7.4822e+06 1809.44
315114 7.4822e+06 1763.67
315646 7.4828e+06 1962.19
315114 7.4828e+06 1979.84
315646 7.4822e+06 1980.46
315114 7.4822e+06 1966.65
316178 7.4822e+06 1837.27
315646 7.4828e+06 1829.79
315646 7.4822e+06 1809.44
315646 7.4822e+06 1809.44
316178 7.4822e+06 2036.06
315646 7.4828e+06 1962.19
315646 7.4822e+06 1980.46
315646 7.4822e+06 1980.46
312456 7.4822e+06 1744.57
311924 7.4822e+06 1764.58
312456 7.4816e+06 1740.99
311924 7.4816e+06 1773.83
312456 7.4822e+06 1958.54
311924 7.4822e+06 2034.98
312456 7.4816e+06 1938.5
311924 7.4816e+06 2015.17
312987 7.4822e+06 1735.53
312456 7.4822e+06 1744.57
312987 7.4816e+06 1709.62
312456 7.4816e+06 1740.99
312987 7.4822e+06 1906.37
312456 7.4822e+06 1958.54
312987 7.4816e+06 1874.99
312456 7.4816e+06 1938.5
313519 7.4822e+06 1726.75
312987 7.4822e+06 1735.53
313519 7.4816e+06 1728.07
312987 7.4816e+06 1709.62
313519 7.4822e+06 1933.51
312987 7.4822e+06 1906.37
313519 7.4816e+06 1867.25
312987 7.4816e+06 1874.99
314051 7.4822e+06 1688.3
313519 7.4822e+06 1726.75
314051 7.4816e+06 1710.26
313519 7.4816e+06 1728.07
314051 7.4822e+06 1915.36
313519 7.4822e+06 1933.51
314051 7.4816e+06 1897.83
313519 7.4816e+06 1867.25
314582 7.4822e+06 1716.46
314051 7.4822e+06 1688.3
314582 7.4816e+06 1739.77
314051 7.4816e+06 1710.26
314582 7.4822e+06 1976.45
314051 7.4822e+06 1915.36
314582 7.4816e+06 1962.09
314051 7.4816e+06 1897.83
315114 7.4822e+06 1763.67
314582 7.4822e+06 1716.46
315114 7.4816e+06 1761
314582 7.4816e+06 1739.77
315114 7.4822e+06 1966.65
314582 7.4822e+06 1976.45
315114 7.4816e+06 1946.34
314582 7.4816e+06 1962.09
315646 7.4822e+06 1809.44
315114 7.4822e+06 1763.67
315646 7.4816e+06 1771.42
315114 7.4816e+06 1761
315646 7.4822e+06 1980.46
315114 7.4822e+06 1966.65
315646 7.4816e+06 1970.84
315114 7.4816e+06 1946.34
316178 7.4822e+06 1837.27
315646 7.4822e+06 1809.44
316178 7.4816e+06 1787.89
315646 7.4816e+06 1771.42
316178 7.4822e+06 2036.06
315646 7.4822e+06 1980.46
316178 7.4816e+06 2001.01
315646 7.4816e+06 1970.84
312456 7.4816e+06 1740.99
311924 7.4816e+06 1773.83
312456 7.48099e+06 1762.37
312456 7.48099e+06 1762.37
312456 7.4816e+06 1938.5
311924 7.4816e+06 2015.17
312456 7.48099e+06 1961.58
312456 7.48099e+06 1961.58
312987 7.4816e+06 1709.62
312456 7.4816e+06 1740.99
312987 7.48099e+06 1733.36
312456 7.48099e+06 1762.37
312987 7.4816e+06 1874.99
312456 7.4816e+06 1938.5
312987 7.48099e+06 1933.74
312456 7.48099e+06 1961.58
313519 7.4816e+06 1728.07
312987 7.4816e+06 1709.62
313519 7.48099e+06 1693.84
312987 7.48099e+06 1733.36
313519 7.4816e+06 1867.25
312987 7.4816e+06 1874.99
313519 7.48099e+06 1891.28
312987 7.48099e+06 1933.74
314051 7.4816e+06 1710.26
313519 7.4816e+06 1728.07
314051 7.48099e+06 1712.11
313519 7.48099e+06 1693.84
314051 7.4816e+06 1897.83
313519 7.4816e+06 1867.25
314051 7.48099e+06 1876.25
313519 7.48099e+06 1891.28
314582 7.4816e+06 1739.77
314051 7.4816e+06 1710.26
314582 7.48099e+06 1726.88
314051 7.48099e+06 1712.11
314582 7.4816e+06 1962.09
314051 7.4816e+06 1897.83
314582 7.48099e+06 1934.49
314051 7.48099e+06 1876.25
315114 7.4816e+06 1761
314582 7.4816e+06 1739.77
315114 7.48099e+06 1709.66
314582 7.48099e+06 1726.88
315114 7.4816e+06 1946.34
314582 7.4816e+06 1962.09
315114 7.48099e+06 1900.24
314582 7.48099e+06 1934.49
315646 7.4816e+06 1771.42
315114 7.4816e+06 1761
315646 7.48099e+06 1756.64
315114 7.48099e+06 1709.66
315646 7.4816e+06 1970.84
315114 7.4816e+06 1946.34
315646 7.48099e+06 1934.39
315114 7.48099e+06 1900.24
316178 7.4816e+06 1787.89
315646 7.4816e+06 1771.42
316178 7.48099e+06 1790.03
315646 7.48099e+06 1756.64
316178 7.4816e+06 2001.01
315646 7.4816e+06 1970.84
316178 7.48099e+06 1968.06
315646 7.48099e+06 1934.39
312987 7.48099e+06 1733.36
312456 7.48099e+06 1762.37
312987 7.48039e+06 1783.28
312987 7.48039e+06 1783.28
312987 7.48099e+06 1933.74
312456 7.48099e+06 1961.58
312987 7.48039e+06 1954.4
312987 7.48039e+06 1954.4
313519 7.48099e+06 1693.84
312987 7.48099e+06 1733.36
313519 7.48039e+06 1754.27
312987 7.48039e+06 1783.28
313519 7.48099e+06 1891.28
312987 7.48099e+06 1933.74
313519 7.48039e+06 1945.64
312987 7.48039e+06 1954.4
314051 7.48099e+06 1712.11
313519 7.48099e+06 1693.84
314051 7.48039e+06 1678.26
313519 7.48039e+06 1754.27
314051 7.48099e+06 1876.25
313519 7.48099e+06 1891.28
314051 7.48039e+06 1880.73
313519 7.48039e+06 1945.64
314582 7.48099e+06 1726.88
314051 7.48099e+06 1712.11
314582 7.48039e+06 1645.63
314051 7.48039e+06 1678.26
314582 7.48099e+06 1934.49
314051 7.48099e+06 1876.25
314582 7.48039e+06 1833.85
314051 7.48039e+06 1880.73
315114 7.48099e+06 1709.66
314582 7.48099e+06 1726.88
315114 7.48039e+06 1721.5
314582 7.48039e+06 1645.63
315114 7.48099e+06 1900.24
314582 7.48099e+06 1934.49
315114 7.48039e+06 1886.11
314582 7.48039e+06 1833.85
315646 7.48099e+06 1756.64
315114 7.48099e+06 1709.66
315646 7.48039e+06 1811.31
315114 7.48039e+06 1721.5
315646 7.48099e+06 1934.39
315114 7.48099e+06 1900.24
315646 7.48039e+06 1988.48
315114 7.48039e+06 1886.11
316178 7.48099e+06 1790.03
315646 7.48099e+06 1756.64
316178 7.48039e+06 1865.22
315646 7.48039e+06 1811.31
316178 7.48099e+06 1968.06
315646 7.48099e+06 1934.39
316178 7.48039e+06 2047.1
315646 7.48039e+06 1988.48
314582 7.48039e+06 1645.63
314051 7.48039e+06 1678.26
314582 7.47979e+06 1665.93
314582 7.47979e+06 1665.93
314582 7.48039e+06 1833.85
314051 7.48039e+06 1880.73
314582 7.47979e+06 1854.12
314582 7.47979e+06 1854.12
315114 7.48039e+06 1721.5
314582 7.48039e+06 1645.63
315114 7.47979e+06 1764.09
314582 7.47979e+06 1665.93
315114 7.48039e+06 1886.11
314582 7.48039e+06 1833.85
315114 7.47979e+06 1939.58
314582 7.47979e+06 1854.12
315646 7.48039e+06 1811.31
315114 7.48039e+06 1721.5
315646 7.47979e+06 1785.57
315114 7.47979e+06 1764.09
315646 7.48039e+06 1988.48
315114 7.48039e+06 1886.11
315646 7.47979e+06 1958.96
315114 7.47979e+06 1939.58
316178 7.48039e+06 1865.22
315646 7.48039e+06 1811.31
316178 7.47979e+06 1802.99
315646 7.47979e+06 1785.57
316178 7.48039e+06 2047.1
315646 7.48039e+06 1988.48
316178 7.47979e+06 1993.3
315646 7.47979e+06 1958.96
315114 7.47979e+06 1764.09
314582 7.47979e+06 1665.93
315114 7.47919e+06 1754.26
315114 7.47919e+06 1754.26
315114 7.47979e+06 1939.58
314582 7.47979e+06 1854.12
315114 7.47919e+06 1906.83
315114 7.47919e+06 1906.83
315646 7.47979e+06 1785.57
315114 7.47979e+06 1764.09
315646 7.47919e+06 1835.41
315114 7.47919e+06 1754.26
315646 7.47979e+06 1958.96
315114 7.47979e+06 1939.58
315646 7.47919e+06 1950.6
315114 7.47919e+06 1906.83
316178 7.47979e+06 1802.99
315646 7.47979e+06 1785.57
316178 7.47919e+06 1862.28
315646 7.47919e+06 1835.41
316178 7.47979e+06 1993.3
315646 7.47979e+06 1958.96
316178 7.47919e+06 2006.1
315646 7.47919e+06 1950.6

CELLS 52 468
8 0 1 3 2 4 5 7 6
8 8 9 11 10 12 13 15 14
8 16 17 19 18 20 21 23 22
8 24 25 27 26 28 29 31 30
8 32 33 35 34 36 37 39 38
8 40 41 43 42 44 45 47 46
8 48 49 51 50 52 53 55 54
8 56 57 59 58 60 61 63 62
8 64 65 67 66 68 69 71 70
8 72 73 75 74 76 77 79 78
8 80 81 83 82 84 85 87 86
8 88 89 91 90 92 93 95 94
8 96 97 99 98 100 101 103 102
8 104 105 107 106 108 109 111 110
8 112 113 115 114 116 117 119 118
8 120 121 123 122 124 125 127 126
8 128 129 131 130 132 133 135 134
8 136 137 139 138 140 141 143 142
8 144 145 147 146 148 149 151 150
8 152 153 155 154 156 157 159 158
8 160 161 163 162 164 165 167 166
8 168 169 171 170 172 173 175 174
8 176 177 179 178 180 181 183 182
8 184 185 187 186 188 189 191 190
8 192 193 195 194 196 197 199 198
8 200 201 203 202 204 205 207 206
8 208 209 211 210 212 213 215 214
8 216 217 219 218 220 221 223 222
8 224 225 227 226 228 229 231 230
8 232 233 235 234 236 237 239 238
8 240 241 243 242 244 245 247 246
8 248 249 251 250 252 253 255 254
8 256 257 259 258 260 261 263 262
8 264 265 267 266 268 269 271 270
8 272 273 275 274 276 277 279 278
8 280 281 283 282 284 285 287 286
8 288 289 291 290 292 293 295 294
8 296 297 299 298 300 301 303 302
8 304 305 307 306 308 309 311 310
8 312 313 315 314 316 317 319 318
8 320 321 323 322 324 325 327 326
8 328 329 331 330 332 333 335 334
8 336 337 339 338 340 341 343 342
8 344 345 347 346 348 349 351 350
8 352 353 355 354 356 357 359 358
8 360 361 363 362 364 365 367 366
8 368 369 371 370 372 373 375 374
8 376 377 379 378 380 381 383 382
8 384 385 387 386 388 389 391 390
8 392 393 395 394 396 397 399 398
8 400 401 403 402 404 405 407 406
8 408 409 411 410 412 413 415 414

CELL_TYPES 52
12
12
12
12
12
12
12
12
12
12
12
12
12
12
12
12
12
12
12
12
12
12
12
12
12
12
12
12
12
12
12
12
12
12
12
12
12
12
12
12
12
12
12
12
12
12
12
12
12
12
12
12

POINT_DATA 416
SCALARS p float
LOOKUP_TABLE default
13.0983 
12.4906 
10.6641 
9.81563 
13.1011 
12.4342 
10.6909 
9.775 
14.5967 
14.2626 
13.0983 
12.4906 
14.5617 
14.2404 
13.1011 
12.4342 
15.8145 
15.5659 
14.5967 
14.2626 
15.8061 
15.5831 
14.5617 
14.2404 
16.7684 
16.5923 
15.8145 
15.5659 
16.8071 
16.5985 
15.8061 
15.5831 
17.4534 
17.2616 
16.7684 
16.5923 
17.4686 
17.263 
16.8071 
16.5985 
17.9115 
17.6284 
17.4534 
17.2616 
17.9096 
17.6275 
17.4686 
17.263 
18.1199 
17.6284 
17.9115 
17.9115 
18.1229 
17.6275 
17.9096 
17.9096 
13.0983 
10.6641 
14.5163 
14.2771 
13.1011 
10.6909 
14.512 
14.3172 
14.5967 
13.0983 
15.4755 
14.5163 
14.5617 
13.1011 
15.4747 
14.512 
15.8145 
14.5967 
16.4353 
15.4755 
15.8061 
14.5617 
16.4662 
15.4747 
16.7684 
15.8145 
17.3002 
16.4353 
16.8071 
15.8061 
17.2976 
16.4662 
17.4534 
16.7684 
17.9929 
17.3002 
17.4686 
16.8071 
17.9835 
17.2976 
17.9115 
17.4534 
18.4737 
17.9929 
17.9096 
17.4686 
18.4791 
17.9835 
18.1199 
17.9115 
18.896 
18.4737 
18.1229 
17.9096 
18.8999 
18.4791 
14.5163 
14.2771 
15.8485 
15.6262 
14.512 
14.3172 
15.8302 
15.6596 
15.4755 
14.5163 
16.4296 
15.8485 
15.4747 
14.512 
16.4119 
15.8302 
16.4353 
15.4755 
17.2271 
16.4296 
16.4662 
15.4747 
17.1969 
16.4119 
17.3002 
16.4353 
18.0338 
17.2271 
17.2976 
16.4662 
18.009 
17.1969 
17.9929 
17.3002 
18.6834 
18.0338 
17.9835 
17.2976 
18.6989 
18.009 
18.4737 
17.9929 
19.245 
18.6834 
18.4791 
17.9835 
19.2449 
18.6989 
18.896 
18.4737 
19.7669 
19.245 
18.8999 
18.4791 
19.7748 
19.2449 
20.1606 
18.896 
19.7669 
19.7669 
20.1664 
18.8999 
19.7748 
19.7748 
15.8485 
15.6262 
16.7426 
16.3714 
15.8302 
15.6596 
16.7228 
16.3513 
16.4296 
15.8485 
17.3138 
16.7426 
16.4119 
15.8302 
17.3092 
16.7228 
17.2271 
16.4296 
18.069 
17.3138 
17.1969 
16.4119 
18.0649 
17.3092 
18.0338 
17.2271 
18.8642 
18.069 
18.009 
17.1969 
18.8821 
18.0649 
18.6834 
18.0338 
19.57 
18.8642 
18.6989 
18.009 
19.5903 
18.8821 
19.245 
18.6834 
20.2271 
19.57 
19.2449 
18.6989 
20.2102 
19.5903 
19.7669 
19.245 
20.7251 
20.2271 
19.7748 
19.2449 
20.7043 
20.2102 
20.1606 
19.7669 
20.8805 
20.7251 
20.1664 
19.7748 
20.8455 
20.7043 
16.7426 
16.3714 
17.4316 
17.4316 
16.7228 
16.3513 
17.4337 
17.4337 
17.3138 
16.7426 
18.0153 
17.4316 
17.3092 
16.7228 
18.0128 
17.4337 
18.069 
17.3138 
18.8228 
18.0153 
18.0649 
17.3092 
18.8147 
18.0128 
18.8642 
18.069 
19.7697 
18.8228 
18.8821 
18.0649 
19.7882 
18.8147 
19.57 
18.8642 
20.7373 
19.7697 
19.5903 
18.8821 
20.6894 
19.7882 
20.2271 
19.57 
21.4967 
20.7373 
20.2102 
19.5903 
21.464 
20.6894 
20.7251 
20.2271 
21.9989 
21.4967 
20.7043 
20.2102 
22.0377 
21.464 
20.8805 
20.7251 
22.1907 
21.9989 
20.8455 
20.7043 
22.2382 
22.0377 
18.0153 
17.4316 
18.4789 
18.4789 
18.0128 
17.4337 
18.4799 
18.4799 
18.8228 
18.0153 
19.1262 
18.4789 
18.8147 
18.0128 
19.1001 
18.4799 
19.7697 
18.8228 
20.7461 
19.1262 
19.7882 
18.8147 
20.6652 
19.1001 
20.7373 
19.7697 
22.1629 
20.7461 
20.6894 
19.7882 
22.1362 
20.6652 
21.4967 
20.7373 
23.1485 
22.1629 
21.464 
20.6894 
23.2349 
22.1362 
21.9989 
21.4967 
23.9123 
23.1485 
22.0377 
21.464 
23.9494 
23.2349 
22.1907 
21.9989 
24.1622 
23.9123 
22.2382 
22.0377 
24.164 
23.9494 
22.1629 
20.7461 
23.8528 
23.8528 
22.1362 
20.6652 
23.9722 
23.9722 
23.1485 
22.1629 
25.5688 
23.8528 
23.2349 
22.1362 
25.6409 
23.9722 
23.9123 
23.1485 
26.3483 
25.5688 
23.9494 
23.2349 
26.3327 
25.6409 
24.1622 
23.9123 
26.6129 
26.3483 
24.164 
23.9494 
26.5813 
26.3327 
25.5688 
23.8528 
29.317 
29.317 
25.6409 
23.9722 
29.3035 
29.3035 
26.3483 
25.5688 
29.9422 
29.317 
26.3327 
25.6409 
29.9879 
29.3035 
26.6129 
26.3483 
29.825 
29.9422 
26.5813 
26.3327 
29.9047 
29.9879 

VECTORS q float
-0.00541651 0.00148529 -0.000285002 
-0.00353705 -1.26028e-11 0.000146735 
-0.0148241 0.00311531 -0.000521164 
-0.00179748 -9.98714e-12 7.45682e-05 
-0.00543573 0.00151497 -0.000321513 
-0.00343708 -1.25521e-11 0.000231034 
-0.0152052 0.00316226 -0.000540303 
-0.00113595 -9.95262e-12 7.6356e-05 
-0.00296441 0.000908563 4.8968e-05 
-0.00288504 -1.43202e-11 0.000154629 
-0.00541651 0.00147923 0.000132859 
-0.00353705 -1.25847e-11 0.000189575 
-0.00295025 0.000921002 0.00012549 
-0.00291868 -1.42974e-11 0.000186389 
-0.00543573 0.00150357 0.000253139 
-0.00343708 -1.25341e-11 0.000219494 
-0.00212893 0.000640924 4.88046e-05 
-0.00220468 -1.56283e-11 -7.24808e-05 
-0.00296441 0.000900481 2.8629e-05 
-0.00288504 -1.43355e-11 -9.48482e-05 
-0.0021674 0.000652433 0.000343627 
-0.0022241 -1.56445e-11 2.83029e-05 
-0.00295025 0.000917969 0.000370962 
-0.00291868 -1.43133e-11 3.71418e-05 
-0.00155174 0.000560985 6.6461e-05 
-0.0016009 -1.66016e-11 -0.000101982 
-0.00212893 0.000664004 3.78788e-05 
-0.00220468 -1.55821e-11 -0.000140444 
-0.00157007 0.000538281 7.98889e-05 
-0.0015933 -1.66116e-11 -0.000181133 
-0.0021674 0.000657242 3.41335e-05 
-0.0022241 -1.55982e-11 -0.000252845 
-0.00109362 0.000570232 -0.000159838 
-0.00102571 -1.72993e-11 -1.44874e-05 
-0.00155174 0.000555376 -0.000162051 
-0.0016009 -1.66278e-11 -2.26115e-05 
-0.00106662 0.000566832 -0.000165684 
-0.00102265 -1.73017e-11 1.35005e-05 
-0.00157007 0.000541994 -0.000163787 
-0.0015933 -1.6636e-11 2.1034e-05 
-0.000711108 0.000651305 4.23281e-05 
-0.000681028 -1.76813e-11 -5.28052e-05 
-0.00109362 0.000572358 -2.40412e-06 
-0.00102571 -1.73025e-11 -7.95311e-05 
-0.000696605 0.000654335 7.2147e-05 
-0.000684412 -1.76801e-11 -4.83722e-06 
-0.00106662 0.000566353 5.72037e-05 
-0.00102265 -1.73049e-11 -7.22776e-06 
-0.00082909 0.000936622 -1.54909e-05 
-0.000681028 0.000769356 -1.27244e-05 
-0.000711108 0.000801484 -1.33901e-05 
-0.000711108 0.000801484 -1.33901e-05 
-0.000826626 0.000933838 1.17312e-05 
-0.000684412 0.00077318 9.71298e-06 
-0.000696605 0.000806386 1.10949e-05 
-0.000696605 0.000806386 1.10949e-05 
-0.00283019 0.00148529 -0.00016921 
1.09696e-11 0.00311531 -1.85571e-05 
-0.000957937 0.00202027 -8.17115e-05 
1.43605e-11 0.00354091 -2.10922e-05 
-0.00278752 0.00151497 -6.49944e-05 
1.09939e-11 0.00316226 7.00853e-05 
-0.000940399 0.0020128 9.98399e-05 
1.43969e-11 0.00353232 7.82871e-05 
-0.00250988 0.000908563 4.09486e-05 
-0.00283019 0.00147923 4.92104e-05 
-0.00163322 0.00141765 -5.20387e-06 
-0.000957937 0.00205841 -1.07798e-05 
-0.00248919 0.000921002 0.000143521 
-0.00278752 0.00150357 0.000228943 
-0.00165764 0.00142675 3.35541e-05 
-0.000940399 0.00204907 0.000121828 
-0.00206004 0.000640924 5.19066e-06 
-0.00250988 0.000900481 2.37326e-05 
-0.00167812 0.0011336 -7.16933e-05 
-0.00163322 0.00141994 -4.81506e-05 
-0.00210865 0.000652433 0.000175511 
-0.00248919 0.000917969 0.000350507 
-0.00167798 0.00110113 -0.000303966 
-0.00165764 0.00143664 -9.55482e-05 
-0.0015405 0.000560985 -4.96715e-05 
-0.00206004 0.000664004 -6.89515e-06 
-0.00143851 0.00101063 -0.000225072 
-0.00167812 0.00112051 -0.000172511 
-0.0015526 0.000538281 -0.000103583 
-0.00210865 0.000657242 -0.000126762 
-0.00141934 0.000968839 -0.00017869 
-0.00167798 0.00109231 -0.000199862 
-0.00107296 0.000570232 -0.000128979 
-0.0015405 0.000555376 -0.000275372 
-0.00110278 0.000994213 6.47998e-05 
-0.00143851 0.00101178 -7.41332e-05 
-0.00104567 0.000566832 -0.000162639 
-0.0015526 0.000541994 -0.000345808 
-0.00110665 0.000999964 6.44875e-05 
-0.00141934 0.000976981 -0.000101747 
-0.000593995 0.000651305 -1.14603e-05 
-0.00107296 0.000572358 2.55838e-05 
-0.00076631 0.00109582 -6.81898e-05 
-0.00110278 0.000999203 -2.93569e-05 
-0.000581968 0.000654335 8.2118e-07 
-0.00104567 0.000566353 5.5872e-05 
-0.000778087 0.0010946 -5.5098e-05 
-0.00110665 0.00100072 -2.49163e-06 
-1.81155e-11 0.000936622 -1.65194e-05 
-0.000593995 0.000801484 -6.87974e-05 
-1.88801e-11 0.00133851 -2.36076e-05 
-0.00076631 0.0011315 -8.46466e-05 
-1.81182e-11 0.000933838 3.74778e-05 
-0.000581968 0.000806386 -6.39992e-05 
-1.88839e-11 0.00133827 5.37088e-05 
-0.000778087 0.00113158 -1.81872e-05 
-0.00103041 0.00202027 -6.84632e-05 
1.42857e-11 0.00354091 -0.000317916 
-0.00070951 0.00180724 2.09733e-05 
1.56319e-11 0.00195381 -0.00017542 
-0.00101014 0.0020128 -3.0155e-05 
1.43221e-11 0.00353232 -0.000522678 
-0.000666848 0.00179942 8.2522e-05 
1.5662e-11 0.0019134 -0.000283126 
-0.00163267 0.00141765 2.22685e-05 
-0.00103041 0.00205841 8.20158e-06 
-0.00119216 0.00145228 1.92327e-05 
-0.00070951 0.00179162 6.41504e-06 
-0.00164978 0.00142675 0.000115669 
-0.00101014 0.00204907 -9.01235e-06 
-0.0011681 0.00144589 0.000221846 
-0.000666848 0.00178256 5.23479e-05 
-0.00165346 0.0011336 7.93561e-06 
-0.00163267 0.00141994 -2.06193e-05 
-0.00142821 0.00130239 5.54698e-05 
-0.00119216 0.00146268 1.86043e-05 
-0.00165217 0.00110113 -1.6896e-05 
-0.00164978 0.00143664 -1.22504e-05 
-0.00142621 0.0012751 4.52684e-05 
-0.0011681 0.00146613 4.8991e-05 
-0.0014415 0.00101063 4.98001e-05 
-0.00165346 0.00112051 -9.23076e-05 
-0.00134646 0.00125819 0.000289288 
-0.00142821 0.00129858 0.000135029 
-0.00141346 0.000968839 0.00011296 
-0.00165217 0.00109231 8.33427e-05 
-0.00138089 0.00127129 0.000215276 
-0.00142621 0.00126485 0.000165735 
-0.00112344 0.000994213 0.000113099 
-0.0014415 0.00101178 0.000201369 
-0.00115065 0.00132459 4.08686e-05 
-0.00134646 0.00126931 0.000122264 
-0.00112637 0.000999964 4.1421e-05 
-0.00141346 0.000976981 0.000192028 
-0.00116515 0.00134068 -0.000145602 
-0.00138089 0.00128877 1.1611e-05 
-0.000895658 0.00109582 2.14749e-06 
-0.00112344 0.000999203 1.74155e-05 
-0.00102141 0.0014804 -2.37146e-05 
-0.00115065 0.00133328 4.48638e-07 
-0.000903898 0.0010946 9.46201e-06 
-0.00112637 0.00100072 -2.67699e-05 
-0.00102248 0.00146212 5.09238e-05 
-0.00116515 0.00134388 9.88034e-06 
-0.000891435 0.00133851 -1.99436e-05 
-0.000895658 0.0011315 -1.44219e-05 
-0.000897193 0.00156671 -2.41399e-05 
-0.00102141 0.0014803 -2.09546e-05 
-0.000880533 0.00133827 -1.14693e-05 
-0.000903898 0.00113158 5.48228e-05 
-0.00089671 0.00155587 -7.05749e-05 
-0.00102248 0.00146551 5.62106e-06 
-0.00123053 0.00139013 -1.73014e-05 
-0.000891435 0.00100705 -1.25337e-05 
-0.000897193 0.00158322 6.67406e-06 
-0.000897193 0.00158322 6.67406e-06 
-0.00121913 0.00137725 -0.000169281 
-0.000880533 0.000994737 -0.000122265 
-0.00089671 0.00157058 -0.000141461 
-0.00089671 0.00157058 -0.000141461 
-0.000707435 0.00180724 3.73739e-05 
1.5675e-11 0.00195381 -3.00711e-05 
-0.000781509 0.0014061 5.66178e-05 
1.64361e-11 0.00133197 -2.05004e-05 
-0.000663766 0.00179942 0.000155373 
1.57022e-11 0.0019134 6.3069e-05 
-0.000781794 0.00140982 0.000159679 
1.64149e-11 0.00131468 4.3334e-05 
-0.00121034 0.00145228 8.32154e-05 
-0.000707435 0.00179162 2.27159e-05 
-0.00119694 0.00129592 0.000126581 
-0.000781509 0.00136075 5.4275e-05 
-0.00119006 0.00144589 0.000192416 
-0.000663766 0.00178256 0.000124652 
-0.00120401 0.00130395 0.000212088 
-0.000781794 0.00137218 0.000139261 
-0.00142943 0.00130239 2.07305e-05 
-0.00121034 0.00146268 8.30333e-05 
-0.00138873 0.00121028 -5.08198e-05 
-0.00119694 0.00126525 1.30364e-05 
-0.00143165 0.0012751 6.75441e-05 
-0.00119006 0.00146613 1.58401e-05 
-0.00140945 0.00120664 0.000153538 
-0.00120401 0.00127122 8.3891e-05 
-0.0013481 0.00125819 5.146e-05 
-0.00142943 0.00129858 0.000100459 
-0.00138874 0.00137456 -3.73376e-06 
-0.00138873 0.00120019 4.3855e-05 
-0.00138109 0.00127129 8.41989e-05 
-0.00143165 0.00126485 0.000188292 
-0.00139798 0.0013941 -3.96944e-05 
-0.00140945 0.00120453 5.17822e-05 
-0.00114391 0.00132459 -0.000112038 
-0.0013481 0.00126931 -0.000117872 
-0.00125888 0.00170765 -0.000136193 
-0.00138874 0.00144159 -0.000129853 
-0.00116765 0.00134068 -0.000102301 
-0.00138109 0.00128877 -0.000121299 
-0.00123251 0.00167752 -0.000109073 
-0.00139798 0.00146803 -0.00012636 
-0.000993428 0.0014804 -8.15806e-05 
-0.00114391 0.00133328 -0.000153223 
-0.00102886 0.00191965 -3.25293e-05 
-0.00125888 0.00173205 -0.000117415 
-0.000997446 0.00146212 6.77844e-05 
-0.00116765 0.00134388 5.36193e-05 
-0.000994436 0.00190634 9.38629e-05 
-0.00123251 0.00169301 7.69409e-05 
-0.000732718 0.00156671 3.60733e-05 
-0.000993428 0.0014803 -7.8892e-05 
-0.000590502 0.00193691 0.000110966 
-0.00102886 0.00192073 -1.16186e-05 
-0.000730916 0.00155587 5.93069e-06 
-0.000997446 0.00146551 2.36326e-05 
-0.000571539 0.00195787 5.01799e-06 
-0.000994436 0.00191217 1.88227e-05 
-2.01016e-11 0.00139013 0.000114217 
-0.000732718 0.00158322 6.18262e-05 
-2.0846e-11 0.00179812 0.000147739 
-0.000590502 0.00193926 0.000104399 
-2.01079e-11 0.00137725 8.03207e-05 
-0.000730916 0.00157058 -5.12492e-05 
-2.08129e-11 0.0018216 0.000106235 
-0.000571539 0.00196001 -1.03902e-06 
-0.000968714 0.0014061 9.77741e-06 
-0.00117905 0.00133197 2.53983e-05 
-0.00101966 0.00115191 2.19649e-05 
-0.00101966 0.00115191 2.19649e-05 
-0.000975605 0.00140982 8.64601e-05 
-0.00116374 0.00131468 0.000117227 
-0.00100424 0.00113448 0.00010116 
-0.00100424 0.00113448 0.00010116 
-0.00122708 0.00129592 2.13023e-05 
-0.000968714 0.00136075 8.82158e-06 
-0.00130636 0.0010441 3.01273e-05 
-0.00101966 0.00108892 1.69697e-05 
-0.00124212 0.00130395 2.10963e-05 
-0.000975605 0.00137218 6.39914e-05 
-0.00130188 0.00104834 -3.42219e-05 
-0.00100424 0.00110048 1.039e-05 
-0.00138706 0.00121028 2.08277e-05 
-0.00122708 0.00126525 -9.25342e-05 
-0.00159468 0.000797742 0.000163898 
-0.00130636 0.000868693 6.273e-05 
-0.00140302 0.00120664 -2.78332e-05 
-0.00124212 0.00127122 -0.000106195 
-0.00160458 0.000790748 9.64483e-05 
-0.00130188 0.0008732 1.85475e-05 
-0.00139605 0.00137456 4.25049e-05 
-0.00138706 0.00120019 0.000114792 
-0.00172422 0.00125814 -6.30862e-05 
-0.00159468 0.000815357 -8.32596e-06 
-0.00140427 0.0013941 -3.06615e-05 
-0.00140302 0.00120453 -0.000128809 
-0.00169206 0.00120147 9.09448e-05 
-0.00160458 0.000808335 1.30125e-05 
-0.0012628 0.00170765 -3.35547e-05 
-0.00139605 0.00144159 -8.20219e-05 
-0.00157993 0.00210062 1.10671e-06 
-0.00172422 0.0016546 -5.30532e-05 
-0.00123449 0.00167752 -7.23574e-05 
-0.00140427 0.00146803 -0.000117229 
-0.00154718 0.00209058 -7.36879e-05 
-0.00169206 0.00161888 -0.000127456 
-0.00102906 0.00191965 0.000122919 
-0.0012628 0.00173205 -1.32452e-05 
-0.00116304 0.00250804 0.000251893 
-0.00157993 0.00217831 9.78595e-05 
-0.000992181 0.00190634 0.000175601 
-0.00123449 0.00169301 0.000114297 
-0.00121733 0.00257248 0.000275694 
-0.00154718 0.00214845 0.000198271 
-0.000585458 0.00193691 3.61662e-05 
-0.00102906 0.00192073 0.000143921 
-0.000615485 0.00271363 1.23821e-05 
-0.00116304 0.00256158 0.000116115 
-0.000571923 0.00195787 9.24039e-05 
-0.000992181 0.00191217 0.000100981 
-0.000681388 0.00274285 0.000122611 
-0.00121733 0.00262717 0.000123375 
-2.08902e-11 0.00179812 -6.4026e-06 
-0.000585458 0.00193926 2.95661e-05 
-2.22048e-11 0.00273253 -9.7298e-06 
-0.000615485 0.00270887 2.79877e-05 
-2.08585e-11 0.0018216 9.98699e-05 
-0.000571923 0.00196001 8.64387e-05 
-2.22523e-11 0.00274452 0.000150469 
-0.000681388 0.00273674 0.000122855 
-0.00135736 0.0010441 -1.25683e-05 
-0.000962087 0.00108892 -3.78855e-05 
-0.00127873 0.0014473 -5.03545e-05 
-0.00127873 0.0014473 -5.03545e-05 
-0.00134461 0.00104834 3.44593e-05 
-0.000972305 0.00110048 1.31472e-05 
-0.0012565 0.00142214 1.69899e-05 
-0.0012565 0.00142214 1.69899e-05 
-0.00162334 0.000797742 4.0379e-05 
-0.00135736 0.000868693 2.86778e-05 
-0.00205398 1.90682e-11 0.000112003 
-0.00127873 1.84066e-11 6.97293e-05 
-0.00162659 0.000790748 5.82987e-05 
-0.00134461 0.0008732 7.72988e-05 
-0.00200467 1.90447e-11 3.30092e-05 
-0.0012565 1.8408e-11 2.06897e-05 
-0.00169519 0.00125814 1.26457e-05 
-0.00162334 0.000815357 -0.000137732 
-0.00256259 2.06167e-11 0.000366133 
-0.00205398 1.90647e-11 0.000293464 
-0.00165546 0.00120147 3.78138e-05 
-0.00162659 0.000808335 -2.71592e-05 
-0.00258217 2.05444e-11 0.000315054 
-0.00200467 1.90415e-11 0.000244592 
-0.00158296 0.00210062 0.000239955 
-0.00169519 0.0016546 4.60392e-05 
-0.00221799 0.00248558 0.000472324 
-0.00256259 0.00223595 0.000283407 
-0.00156054 0.00209058 0.000178916 
-0.00165546 0.00161888 -0.000193638 
-0.00233713 0.00255864 0.000634793 
-0.00258217 0.00229362 0.000210873 
-0.00118279 0.00250804 -1.11246e-05 
-0.00158296 0.00217831 0.000345727 
-0.00155572 0.00346675 -0.000290162 
-0.00221799 0.00279988 6.22061e-05 
-0.00124496 0.00257248 0.000140631 
-0.00156054 0.00214845 0.000460234 
-0.00162967 0.0035314 -7.70615e-05 
-0.00233713 0.0028823 0.000253069 
-0.000612621 0.00271363 -0.000300945 
-0.00118279 0.00256158 -0.000154915 
-0.000876835 0.00369063 -0.000483742 
-0.00155572 0.00377256 -0.000336951 
-0.000674771 0.00274285 -0.000290171 
-0.00124496 0.00262717 -1.81496e-05 
-0.000828779 0.00365747 -0.00048865 
-0.00162967 0.00383657 -0.000223388 
-2.2155e-11 0.00273253 -0.000341862 
-0.000612621 0.00270887 -0.000284862 
-2.41151e-11 0.00373948 -0.000467839 
-0.000876835 0.00369763 -0.000425209 
-2.22006e-11 0.00274452 -0.000360943 
-0.000674771 0.00273674 -0.000289012 
-2.41212e-11 0.00368302 -0.000484369 
-0.000828779 0.00366047 -0.000420764 
-0.00219947 0.00248558 5.1202e-05 
-0.00197553 0.00223595 4.58724e-05 
-0.00253858 0.00287323 5.89466e-05 
-0.00253858 0.00287323 5.89466e-05 
-0.00233529 0.00255864 0.000119878 