# vtk DataFile Version 3.0
Arquivo gerado por PZ
ASCII

DATASET UNSTRUCTURED_GRID
POINTS 16 float
0 0 0
0 5 0
5 0 0
5 5 0
5 0 0
5 5 0
10 0 0
10 5 0
5 5 0
5 10 0
10 5 0
10 10 0
0 5 0
0 10 0
5 5 0
5 10 0

CELLS 4 20
4 0 2 3 1
4 4 6 7 5
4 8 10 11 9
4 12 14 15 13

CELL_TYPES 4
9
9
9
9

POINT_DATA 16
SCALARS state float
LOOKUP_TABLE default
-1.11022e-16 
4.44089e-16 
5 
5 
5 
5 
10 
10 
5 
5 
10 
10 
-1.11022e-16 
4.44089e-16 
5 
5 

SCALARS ExactSolution float
LOOKUP_TABLE default
-1.11022e-16 
4.44089e-16 
5 
5 
5 
5 
10 
10 
5 
5 
10 
10 
-1.11022e-16 
4.44089e-16 
5 
5 

VECTORS Flux float
-2 -1.21911e-16 0 
-2 -1.21911e-16 0 
-2 4.54978e-16 0 
-2 4.54978e-16 0 
-2 6.42221e-16 0 
-2 5.0145e-16 0 
-2 -4.49825e-15 0 
-2 -3.97289e-15 0 
-2 -8.64265e-16 0 
-2 1.09642e-15 0 
-2 3.78856e-15 0 
-2 3.75085e-15 0 
-2 -2.22045e-16 0 
-2 -2.22045e-16 0 
-2 -2.22045e-16 0 
-2 -2.22045e-16 0 

