# vtk DataFile Version 3.0
Arquivo gerado por PZ
ASCII

DATASET UNSTRUCTURED_GRID
POINTS 200 float
0 0 0
0 10 0
2 0 0
2 10 0
2 0 0
2 10 0
4 0 0
4 10 0
4 0 0
4 10 0
6 0 0
6 10 0
6 0 0
6 10 0
8 0 0
8 10 0
8 0 0
8 10 0
10 0 0
10 10 0
10 0 0
10 10 0
12 0 0
12 10 0
12 0 0
12 10 0
14 0 0
14 10 0
14 0 0
14 10 0
16 0 0
16 10 0
16 0 0
16 10 0
18 0 0
18 10 0
18 0 0
18 10 0
20 0 0
20 10 0
20 0 0
20 10 0
22 0 0
22 10 0
22 0 0
22 10 0
24 0 0
24 10 0
24 0 0
24 10 0
26 0 0
26 10 0
26 0 0
26 10 0
28 0 0
28 10 0
28 0 0
28 10 0
30 0 0
30 10 0
30 0 0
30 10 0
32 0 0
32 10 0
32 0 0
32 10 0
34 0 0
34 10 0
34 0 0
34 10 0
36 0 0
36 10 0
36 0 0
36 10 0
38 0 0
38 10 0
38 0 0
38 10 0
40 0 0
40 10 0
40 0 0
40 10 0
42 0 0
42 10 0
42 0 0
42 10 0
44 0 0
44 10 0
44 0 0
44 10 0
46 0 0
46 10 0
46 0 0
46 10 0
48 0 0
48 10 0
48 0 0
48 10 0
50 0 0
50 10 0
50 0 0
50 10 0
52 0 0
52 10 0
52 0 0
52 10 0
54 0 0
54 10 0
54 0 0
54 10 0
56 0 0
56 10 0
56 0 0
56 10 0
58 0 0
58 10 0
58 0 0
58 10 0
60 0 0
60 10 0
60 0 0
60 10 0
62 0 0
62 10 0
62 0 0
62 10 0
64 0 0
64 10 0
64 0 0
64 10 0
66 0 0
66 10 0
66 0 0
66 10 0
68 0 0
68 10 0
68 0 0
68 10 0
70 0 0
70 10 0
70 0 0
70 10 0
72 0 0
72 10 0
72 0 0
72 10 0
74 0 0
74 10 0
74 0 0
74 10 0
76 0 0
76 10 0
76 0 0
76 10 0
78 0 0
78 10 0
78 0 0
78 10 0
80 0 0
80 10 0
80 0 0
80 10 0
82 0 0
82 10 0
82 0 0
82 10 0
84 0 0
84 10 0
84 0 0
84 10 0
86 0 0
86 10 0
86 0 0
86 10 0
88 0 0
88 10 0
88 0 0
88 10 0
90 0 0
90 10 0
90 0 0
90 10 0
92 0 0
92 10 0
92 0 0
92 10 0
94 0 0
94 10 0
94 0 0
94 10 0
96 0 0
96 10 0
96 0 0
96 10 0
98 0 0
98 10 0
98 0 0
98 10 0
100 0 0
100 10 0

CELLS 50 250
4 0 2 3 1
4 4 6 7 5
4 8 10 11 9
4 12 14 15 13
4 16 18 19 17
4 20 22 23 21
4 24 26 27 25
4 28 30 31 29
4 32 34 35 33
4 36 38 39 37
4 40 42 43 41
4 44 46 47 45
4 48 50 51 49
4 52 54 55 53
4 56 58 59 57
4 60 62 63 61
4 64 66 67 65
4 68 70 71 69
4 72 74 75 73
4 76 78 79 77
4 80 82 83 81
4 84 86 87 85
4 88 90 91 89
4 92 94 95 93
4 96 98 99 97
4 100 102 103 101
4 104 106 107 105
4 108 110 111 109
4 112 114 115 113
4 116 118 119 117
4 120 122 123 121
4 124 126 127 125
4 128 130 131 129
4 132 134 135 133
4 136 138 139 137
4 140 142 143 141
4 144 146 147 145
4 148 150 151 149
4 152 154 155 153
4 156 158 159 157
4 160 162 163 161
4 164 166 167 165
4 168 170 171 169
4 172 174 175 173
4 176 178 179 177
4 180 182 183 181
4 184 186 187 185
4 188 190 191 189
4 192 194 195 193
4 196 198 199 197

CELL_TYPES 50
9
9
9
9
9
9
9
9
9
9
9
9
9
9
9
9
9
9
9
9
9
9
9
9
9
9
9
9
9
9
9
9
9
9
9
9
9
9
9
9
9
9
9
9
9
9
9
9
9
9

POINT_DATA 200
SCALARS Sw float
LOOKUP_TABLE default
0.000122199 
0.000122199 
0.000122199 
0.000122199 
0.000178978 
0.000178978 
0.000178978 
0.000178978 
0.000260807 
0.000260807 
0.000260807 
0.000260807 
0.000378054 
0.000378054 
0.000378054 
0.000378054 
0.000545043 
0.000545043 
0.000545043 
0.000545043 
0.000781395 
0.000781395 
0.000781395 
0.000781395 
0.00111377 
0.00111377 
0.00111377 
0.00111377 
0.00157803 
0.00157803 
0.00157803 
0.00157803 
0.00222201 
0.00222201 
0.00222201 
0.00222201 
0.0031088 
0.0031088 
0.0031088 
0.0031088 
0.00432075 
0.00432075 
0.00432075 
0.00432075 
0.00596407 
0.00596407 
0.00596407 
0.00596407 
0.00817405 
0.00817405 
0.00817405 
0.00817405 
0.0111207 
0.0111207 
0.0111207 
0.0111207 
0.0150145 
0.0150145 
0.0150145 
0.0150145 
0.0201118 
0.0201118 
0.0201118 
0.0201118 
0.0267194 
0.0267194 
0.0267194 
0.0267194 
0.0351971 
0.0351971 
0.0351971 
0.0351971 
0.0459573 
0.0459573 
0.0459573 
0.0459573 
0.0594602 
0.0594602 
0.0594602 
0.0594602 
0.0762039 
0.0762039 
0.0762039 
0.0762039 
0.0967063 
0.0967063 
0.0967063 
0.0967063 
0.12148 
0.12148 
0.12148 
0.12148 
0.150998 
0.150998 
0.150998 
0.150998 
0.185649 
0.185649 
0.185649 
0.185649 
0.22569 
0.22569 
0.22569 
0.22569 
0.271192 
0.271192 
0.271192 
0.271192 
0.321984 
0.321984 
0.321984 
0.321984 
0.377614 
0.377614 
0.377614 
0.377614 
0.437315 
0.437315 
0.437315 
0.437315 
0.5 
0.5 
0.5 
0.5 
0.564293 
0.564293 
0.564293 
0.564293 
0.628585 
0.628585 
0.628585 
0.628585 
0.69114 
0.69114 
0.69114 
0.69114 
0.75022 
0.75022 
0.75022 
0.75022 
0.804236 
0.804236 
0.804236 
0.804236 
0.851897 
0.851897 
0.851897 
0.851897 
0.892336 
0.892336 
0.892336 
0.892336 
0.925194 
0.925194 
0.925194 
0.925194 
0.950631 
0.950631 
0.950631 
0.950631 
0.969286 
0.969286 
0.969286 
0.969286 
0.982151 
0.982151 
0.982151 
0.982151 
0.990421 
0.990421 
0.990421 
0.990421 
0.995322 
0.995322 
0.995322 
0.995322 
0.997961 
0.997961 
0.997961 
0.997961 
0.999228 
0.999228 
0.999228 
0.999228 
0.999756 
0.999756 
0.999756 
0.999756 
0.999939 
0.999939 
0.999939 
0.999939 
0.99999 
0.99999 
0.99999 
0.99999 
0.999999 
0.999999 
0.999999 
0.999999 

SCALARS So float
LOOKUP_TABLE default
0.999878 
0.999878 
0.999878 
0.999878 
0.999821 
0.999821 
0.999821 
0.999821 
0.999739 
0.999739 
0.999739 
0.999739 
0.999622 
0.999622 
0.999622 
0.999622 
0.999455 
0.999455 
0.999455 
0.999455 
0.999219 
0.999219 
0.999219 
0.999219 
0.998886 
0.998886 
0.998886 
0.998886 
0.998422 
0.998422 
0.998422 
0.998422 
0.997778 
0.997778 
0.997778 
0.997778 
0.996891 
0.996891 
0.996891 
0.996891 
0.995679 
0.995679 
0.995679 
0.995679 
0.994036 
0.994036 
0.994036 
0.994036 
0.991826 
0.991826 
0.991826 
0.991826 
0.988879 
0.988879 
0.988879 
0.988879 
0.984986 
0.984986 
0.984986 
0.984986 
0.979888 
0.979888 
0.979888 
0.979888 
0.973281 
0.973281 
0.973281 
0.973281 
0.964803 
0.964803 
0.964803 
0.964803 
0.954043 
0.954043 
0.954043 
0.954043 
0.94054 
0.94054 
0.94054 
0.94054 
0.923796 
0.923796 
0.923796 
0.923796 
0.903294 
0.903294 
0.903294 
0.903294 
0.87852 
0.87852 
0.87852 
0.87852 
0.849002 
0.849002 
0.849002 
0.849002 
0.814351 
0.814351 
0.814351 
0.814351 
0.77431 
0.77431 
0.77431 
0.77431 
0.728808 
0.728808 
0.728808 
0.728808 
0.678016 
0.678016 
0.678016 
0.678016 
0.622386 
0.622386 
0.622386 
0.622386 
0.562685 
0.562685 
0.562685 
0.562685 
0.5 
0.5 
0.5 
0.5 
0.435707 
0.435707 
0.435707 
0.435707 
0.371415 
0.371415 
0.371415 
0.371415 
0.30886 
0.30886 
0.30886 
0.30886 
0.24978 
0.24978 
0.24978 
0.24978 
0.195764 
0.195764 
0.195764 
0.195764 
0.148103 
0.148103 
0.148103 
0.148103 
0.107664 
0.107664 
0.107664 
0.107664 
0.0748064 
0.0748064 
0.0748064 
0.0748064 
0.0493686 
0.0493686 
0.0493686 
0.0493686 
0.0307142 
0.0307142 
0.0307142 
0.0307142 
0.0178491 
0.0178491 
0.0178491 
0.0178491 
0.00957865 
0.00957865 
0.00957865 
0.00957865 
0.00467765 
0.00467765 
0.00467765 
0.00467765 
0.00203866 
0.00203866 
0.00203866 
0.00203866 
0.00077194 
0.00077194 
0.00077194 
0.00077194 
0.000244141 
0.000244141 
0.000244141 
0.000244141 
6.05583e-05 
6.05583e-05 
6.05583e-05 
6.05583e-05 
1.04904e-05 
1.04904e-05 
1.04904e-05 
1.04904e-05 
9.53674e-07 
9.53674e-07 
9.53674e-07 
9.53674e-07 

