# vtk DataFile Version 3.0
Arquivo gerado por PZ
ASCII

DATASET UNSTRUCTURED_GRID
POINTS 200 float
0 0 0
0 10 0
2 0 0
2 10 0
2 0 0
2 10 0
4 0 0
4 10 0
4 0 0
4 10 0
6 0 0
6 10 0
6 0 0
6 10 0
8 0 0
8 10 0
8 0 0
8 10 0
10 0 0
10 10 0
10 0 0
10 10 0
12 0 0
12 10 0
12 0 0
12 10 0
14 0 0
14 10 0
14 0 0
14 10 0
16 0 0
16 10 0
16 0 0
16 10 0
18 0 0
18 10 0
18 0 0
18 10 0
20 0 0
20 10 0
20 0 0
20 10 0
22 0 0
22 10 0
22 0 0
22 10 0
24 0 0
24 10 0
24 0 0
24 10 0
26 0 0
26 10 0
26 0 0
26 10 0
28 0 0
28 10 0
28 0 0
28 10 0
30 0 0
30 10 0
30 0 0
30 10 0
32 0 0
32 10 0
32 0 0
32 10 0
34 0 0
34 10 0
34 0 0
34 10 0
36 0 0
36 10 0
36 0 0
36 10 0
38 0 0
38 10 0
38 0 0
38 10 0
40 0 0
40 10 0
40 0 0
40 10 0
42 0 0
42 10 0
42 0 0
42 10 0
44 0 0
44 10 0
44 0 0
44 10 0
46 0 0
46 10 0
46 0 0
46 10 0
48 0 0
48 10 0
48 0 0
48 10 0
50 0 0
50 10 0
50 0 0
50 10 0
52 0 0
52 10 0
52 0 0
52 10 0
54 0 0
54 10 0
54 0 0
54 10 0
56 0 0
56 10 0
56 0 0
56 10 0
58 0 0
58 10 0
58 0 0
58 10 0
60 0 0
60 10 0
60 0 0
60 10 0
62 0 0
62 10 0
62 0 0
62 10 0
64 0 0
64 10 0
64 0 0
64 10 0
66 0 0
66 10 0
66 0 0
66 10 0
68 0 0
68 10 0
68 0 0
68 10 0
70 0 0
70 10 0
70 0 0
70 10 0
72 0 0
72 10 0
72 0 0
72 10 0
74 0 0
74 10 0
74 0 0
74 10 0
76 0 0
76 10 0
76 0 0
76 10 0
78 0 0
78 10 0
78 0 0
78 10 0
80 0 0
80 10 0
80 0 0
80 10 0
82 0 0
82 10 0
82 0 0
82 10 0
84 0 0
84 10 0
84 0 0
84 10 0
86 0 0
86 10 0
86 0 0
86 10 0
88 0 0
88 10 0
88 0 0
88 10 0
90 0 0
90 10 0
90 0 0
90 10 0
92 0 0
92 10 0
92 0 0
92 10 0
94 0 0
94 10 0
94 0 0
94 10 0
96 0 0
96 10 0
96 0 0
96 10 0
98 0 0
98 10 0
98 0 0
98 10 0
100 0 0
100 10 0

CELLS 50 250
4 0 2 3 1
4 4 6 7 5
4 8 10 11 9
4 12 14 15 13
4 16 18 19 17
4 20 22 23 21
4 24 26 27 25
4 28 30 31 29
4 32 34 35 33
4 36 38 39 37
4 40 42 43 41
4 44 46 47 45
4 48 50 51 49
4 52 54 55 53
4 56 58 59 57
4 60 62 63 61
4 64 66 67 65
4 68 70 71 69
4 72 74 75 73
4 76 78 79 77
4 80 82 83 81
4 84 86 87 85
4 88 90 91 89
4 92 94 95 93
4 96 98 99 97
4 100 102 103 101
4 104 106 107 105
4 108 110 111 109
4 112 114 115 113
4 116 118 119 117
4 120 122 123 121
4 124 126 127 125
4 128 130 131 129
4 132 134 135 133
4 136 138 139 137
4 140 142 143 141
4 144 146 147 145
4 148 150 151 149
4 152 154 155 153
4 156 158 159 157
4 160 162 163 161
4 164 166 167 165
4 168 170 171 169
4 172 174 175 173
4 176 178 179 177
4 180 182 183 181
4 184 186 187 185
4 188 190 191 189
4 192 194 195 193
4 196 198 199 197

CELL_TYPES 50
9
9
9
9
9
9
9
9
9
9
9
9
9
9
9
9
9
9
9
9
9
9
9
9
9
9
9
9
9
9
9
9
9
9
9
9
9
9
9
9
9
9
9
9
9
9
9
9
9
9

POINT_DATA 200
SCALARS Sw float
LOOKUP_TABLE default
8.07091e-09 
8.07091e-09 
8.07091e-09 
8.07091e-09 
1.38111e-08 
1.38111e-08 
1.38111e-08 
1.38111e-08 
2.36749e-08 
2.36749e-08 
2.36749e-08 
2.36749e-08 
4.05792e-08 
4.05792e-08 
4.05792e-08 
4.05792e-08 
6.94652e-08 
6.94652e-08 
6.94652e-08 
6.94652e-08 
1.18673e-07 
1.18673e-07 
1.18673e-07 
1.18673e-07 
2.02229e-07 
2.02229e-07 
2.02229e-07 
2.02229e-07 
3.43626e-07 
3.43626e-07 
3.43626e-07 
3.43626e-07 
5.82055e-07 
5.82055e-07 
5.82055e-07 
5.82055e-07 
9.82611e-07 
9.82611e-07 
9.82611e-07 
9.82611e-07 
1.65292e-06 
1.65292e-06 
1.65292e-06 
1.65292e-06 
2.77011e-06 
2.77011e-06 
2.77011e-06 
2.77011e-06 
4.62416e-06 
4.62416e-06 
4.62416e-06 
4.62416e-06 
7.68736e-06 
7.68736e-06 
7.68736e-06 
7.68736e-06 
1.27246e-05 
1.27246e-05 
1.27246e-05 
1.27246e-05 
2.09674e-05 
2.09674e-05 
2.09674e-05 
2.09674e-05 
3.43859e-05 
3.43859e-05 
3.43859e-05 
3.43859e-05 
5.61111e-05 
5.61111e-05 
5.61111e-05 
5.61111e-05 
9.10833e-05 
9.10833e-05 
9.10833e-05 
9.10833e-05 
0.000147039 
0.000147039 
0.000147039 
0.000147039 
0.000235994 
0.000235994 
0.000235994 
0.000235994 
0.000376449 
0.000376449 
0.000376449 
0.000376449 
0.000596622 
0.000596622 
0.000596622 
0.000596622 
0.000939113 
0.000939113 
0.000939113 
0.000939113 
0.00146753 
0.00146753 
0.00146753 
0.00146753 
0.00227569 
0.00227569 
0.00227569 
0.00227569 
0.00350018 
0.00350018 
0.00350018 
0.00350018 
0.00533692 
0.00533692 
0.00533692 
0.00533692 
0.0080624 
0.0080624 
0.0080624 
0.0080624 
0.0120598 
0.0120598 
0.0120598 
0.0120598 
0.0178491 
0.0178491 
0.0178491 
0.0178491 
0.0261195 
0.0261195 
0.0261195 
0.0261195 
0.0377593 
0.0377593 
0.0377593 
0.0377593 
0.0538761 
0.0538761 
0.0538761 
0.0538761 
0.0757948 
0.0757948 
0.0757948 
0.0757948 
0.10502 
0.10502 
0.10502 
0.10502 
0.143139 
0.143139 
0.143139 
0.143139 
0.191655 
0.191655 
0.191655 
0.191655 
0.251722 
0.251722 
0.251722 
0.251722 
0.323803 
0.323803 
0.323803 
0.323803 
0.407265 
0.407265 
0.407265 
0.407265 
0.5 
0.5 
0.5 
0.5 
0.59819 
0.59819 
0.59819 
0.59819 
0.696381 
0.696381 
0.696381 
0.696381 
0.788025 
0.788025 
0.788025 
0.788025 
0.866577 
0.866577 
0.866577 
0.866577 
0.927002 
0.927002 
0.927002 
0.927002 
0.967285 
0.967285 
0.967285 
0.967285 
0.989258 
0.989258 
0.989258 
0.989258 
0.998047 
0.998047 
0.998047 
0.998047 

SCALARS So float
LOOKUP_TABLE default
1 
1 
1 
1 
1 
1 
1 
1 
1 
1 
1 
1 
1 
1 
1 
1 
1 
1 
1 
1 
1 
1 
1 
1 
1 
1 
1 
1 
1 
1 
1 
1 
0.999999 
0.999999 
0.999999 
0.999999 
0.999999 
0.999999 
0.999999 
0.999999 
0.999998 
0.999998 
0.999998 
0.999998 
0.999997 
0.999997 
0.999997 
0.999997 
0.999995 
0.999995 
0.999995 
0.999995 
0.999992 
0.999992 
0.999992 
0.999992 
0.999987 
0.999987 
0.999987 
0.999987 
0.999979 
0.999979 
0.999979 
0.999979 
0.999966 
0.999966 
0.999966 
0.999966 
0.999944 
0.999944 
0.999944 
0.999944 
0.999909 
0.999909 
0.999909 
0.999909 
0.999853 
0.999853 
0.999853 
0.999853 
0.999764 
0.999764 
0.999764 
0.999764 
0.999624 
0.999624 
0.999624 
0.999624 
0.999403 
0.999403 
0.999403 
0.999403 
0.999061 
0.999061 
0.999061 
0.999061 
0.998532 
0.998532 
0.998532 
0.998532 
0.997724 
0.997724 
0.997724 
0.997724 
0.9965 
0.9965 
0.9965 
0.9965 
0.994663 
0.994663 
0.994663 
0.994663 
0.991938 
0.991938 
0.991938 
0.991938 
0.98794 
0.98794 
0.98794 
0.98794 
0.982151 
0.982151 
0.982151 
0.982151 
0.973881 
0.973881 
0.973881 
0.973881 
0.962241 
0.962241 
0.962241 
0.962241 
0.946124 
0.946124 
0.946124 
0.946124 
0.924205 
0.924205 
0.924205 
0.924205 
0.89498 
0.89498 
0.89498 
0.89498 
0.856861 
0.856861 
0.856861 
0.856861 
0.808345 
0.808345 
0.808345 
0.808345 
0.748278 
0.748278 
0.748278 
0.748278 
0.676197 
0.676197 
0.676197 
0.676197 
0.592735 
0.592735 
0.592735 
0.592735 
0.5 
0.5 
0.5 
0.5 
0.40181 
0.40181 
0.40181 
0.40181 
0.303619 
0.303619 
0.303619 
0.303619 
0.211975 
0.211975 
0.211975 
0.211975 
0.133423 
0.133423 
0.133423 
0.133423 
0.072998 
0.072998 
0.072998 
0.072998 
0.0327148 
0.0327148 
0.0327148 
0.0327148 
0.0107422 
0.0107422 
0.0107422 
0.0107422 
0.00195313 
0.00195313 
0.00195313 
0.00195313 

