# vtk DataFile Version 3.0
Arquivo gerado por PZ
ASCII

DATASET UNSTRUCTURED_GRID
POINTS 416 float
312456 7.4834e+06 1735.53
312456 7.484e+06 1737.58
311924 7.4834e+06 1707.04
311924 7.484e+06 1759.65
312456 7.4834e+06 1988.16
312456 7.484e+06 1977.31
311924 7.4834e+06 1959.37
311924 7.484e+06 2013.07
312987 7.4834e+06 1723
312987 7.484e+06 1709.12
312456 7.4834e+06 1735.53
312456 7.484e+06 1737.58
312987 7.4834e+06 1960.78
312987 7.484e+06 1943.4
312456 7.4834e+06 1988.16
312456 7.484e+06 1977.31
313519 7.4834e+06 1714.13
313519 7.484e+06 1726.61
312987 7.4834e+06 1723
312987 7.484e+06 1709.12
313519 7.4834e+06 1889.1
313519 7.484e+06 1936.63
312987 7.4834e+06 1960.78
312987 7.484e+06 1943.4
314051 7.4834e+06 1708.11
314051 7.484e+06 1760.5
313519 7.4834e+06 1714.13
313519 7.484e+06 1726.61
314051 7.4834e+06 1893.48
314051 7.484e+06 1997.11
313519 7.4834e+06 1889.1
313519 7.484e+06 1936.63
314582 7.4834e+06 1780.13
314582 7.484e+06 1768
314051 7.4834e+06 1708.11
314051 7.484e+06 1760.5
314582 7.4834e+06 1980.48
314582 7.484e+06 1990.1
314051 7.4834e+06 1893.48
314051 7.484e+06 1997.11
315114 7.4834e+06 1775.68
315114 7.484e+06 1809.25
314582 7.4834e+06 1780.13
314582 7.484e+06 1768
315114 7.4834e+06 1956.47
315114 7.484e+06 1993.86
314582 7.4834e+06 1980.48
314582 7.484e+06 1990.1
315646 7.4834e+06 1819.19
315114 7.484e+06 1809.25
315114 7.4834e+06 1775.68
315114 7.4834e+06 1775.68
315646 7.4834e+06 1986.31
315114 7.484e+06 1993.86
315114 7.4834e+06 1956.47
315114 7.4834e+06 1956.47
312456 7.4834e+06 1735.53
311924 7.4834e+06 1707.04
312456 7.4828e+06 1742.67
311924 7.4828e+06 1710.62
312456 7.4834e+06 1988.16
311924 7.4834e+06 1959.37
312456 7.4828e+06 1954.1
311924 7.4828e+06 1946.05
312987 7.4834e+06 1723
312456 7.4834e+06 1735.53
312987 7.4828e+06 1735.09
312456 7.4828e+06 1742.67
312987 7.4834e+06 1960.78
312456 7.4834e+06 1988.16
312987 7.4828e+06 1950.88
312456 7.4828e+06 1954.1
313519 7.4834e+06 1714.13
312987 7.4834e+06 1723
313519 7.4828e+06 1741.47
312987 7.4828e+06 1735.09
313519 7.4834e+06 1889.1
312987 7.4834e+06 1960.78
313519 7.4828e+06 1989.14
312987 7.4828e+06 1950.88
314051 7.4834e+06 1708.11
313519 7.4834e+06 1714.13
314051 7.4828e+06 1780
313519 7.4828e+06 1741.47
314051 7.4834e+06 1893.48
313519 7.4834e+06 1889.1
314051 7.4828e+06 1994.86
313519 7.4828e+06 1989.14
314582 7.4834e+06 1780.13
314051 7.4834e+06 1708.11
314582 7.4828e+06 1762.69
314051 7.4828e+06 1780
314582 7.4834e+06 1980.48
314051 7.4834e+06 1893.48
314582 7.4828e+06 1971.27
314051 7.4828e+06 1994.86
315114 7.4834e+06 1775.68
314582 7.4834e+06 1780.13
315114 7.4828e+06 1790.84
314582 7.4828e+06 1762.69
315114 7.4834e+06 1956.47
314582 7.4834e+06 1980.48
315114 7.4828e+06 1979.84
314582 7.4828e+06 1971.27
315646 7.4834e+06 1819.19
315114 7.4834e+06 1775.68
315646 7.4828e+06 1829.79
315114 7.4828e+06 1790.84
315646 7.4834e+06 1986.31
315114 7.4834e+06 1956.47
315646 7.4828e+06 1962.19
315114 7.4828e+06 1979.84
312456 7.4828e+06 1742.67
311924 7.4828e+06 1710.62
312456 7.4822e+06 1744.57
311924 7.4822e+06 1764.58
312456 7.4828e+06 1954.1
311924 7.4828e+06 1946.05
312456 7.4822e+06 1958.54
311924 7.4822e+06 2034.98
312987 7.4828e+06 1735.09
312456 7.4828e+06 1742.67
312987 7.4822e+06 1735.53
312456 7.4822e+06 1744.57
312987 7.4828e+06 1950.88
312456 7.4828e+06 1954.1
312987 7.4822e+06 1906.37
312456 7.4822e+06 1958.54
313519 7.4828e+06 1741.47
312987 7.4828e+06 1735.09
313519 7.4822e+06 1726.75
312987 7.4822e+06 1735.53
313519 7.4828e+06 1989.14
312987 7.4828e+06 1950.88
313519 7.4822e+06 1933.51
312987 7.4822e+06 1906.37
314051 7.4828e+06 1780
313519 7.4828e+06 1741.47
314051 7.4822e+06 1688.3
313519 7.4822e+06 1726.75
314051 7.4828e+06 1994.86
313519 7.4828e+06 1989.14
314051 7.4822e+06 1915.36
313519 7.4822e+06 1933.51
314582 7.4828e+06 1762.69
314051 7.4828e+06 1780
314582 7.4822e+06 1716.46
314051 7.4822e+06 1688.3
314582 7.4828e+06 1971.27
314051 7.4828e+06 1994.86
314582 7.4822e+06 1976.45
314051 7.4822e+06 1915.36
315114 7.4828e+06 1790.84
314582 7.4828e+06 1762.69
315114 7.4822e+06 1763.67
314582 7.4822e+06 1716.46
315114 7.4828e+06 1979.84
314582 7.4828e+06 1971.27
315114 7.4822e+06 1966.65
314582 7.4822e+06 1976.45
315646 7.4828e+06 1829.79
315114 7.4828e+06 1790.84
315646 7.4822e+06 1809.44
315114 7.4822e+06 1763.67
315646 7.4828e+06 1962.19
315114 7.4828e+06 1979.84
315646 7.4822e+06 1980.46
315114 7.4822e+06 1966.65
316178 7.4822e+06 1837.27
315646 7.4828e+06 1829.79
315646 7.4822e+06 1809.44
315646 7.4822e+06 1809.44
316178 7.4822e+06 2036.06
315646 7.4828e+06 1962.19
315646 7.4822e+06 1980.46
315646 7.4822e+06 1980.46
312456 7.4822e+06 1744.57
311924 7.4822e+06 1764.58
312456 7.4816e+06 1740.99
311924 7.4816e+06 1773.83
312456 7.4822e+06 1958.54
311924 7.4822e+06 2034.98
312456 7.4816e+06 1938.5
311924 7.4816e+06 2015.17
312987 7.4822e+06 1735.53
312456 7.4822e+06 1744.57
312987 7.4816e+06 1709.62
312456 7.4816e+06 1740.99
312987 7.4822e+06 1906.37
312456 7.4822e+06 1958.54
312987 7.4816e+06 1874.99
312456 7.4816e+06 1938.5
313519 7.4822e+06 1726.75
312987 7.4822e+06 1735.53
313519 7.4816e+06 1728.07
312987 7.4816e+06 1709.62
313519 7.4822e+06 1933.51
312987 7.4822e+06 1906.37
313519 7.4816e+06 1867.25
312987 7.4816e+06 1874.99
314051 7.4822e+06 1688.3
313519 7.4822e+06 1726.75
314051 7.4816e+06 1710.26
313519 7.4816e+06 1728.07
314051 7.4822e+06 1915.36
313519 7.4822e+06 1933.51
314051 7.4816e+06 1897.83
313519 7.4816e+06 1867.25
314582 7.4822e+06 1716.46
314051 7.4822e+06 1688.3
314582 7.4816e+06 1739.77
314051 7.4816e+06 1710.26
314582 7.4822e+06 1976.45
314051 7.4822e+06 1915.36
314582 7.4816e+06 1962.09
314051 7.4816e+06 1897.83
315114 7.4822e+06 1763.67
314582 7.4822e+06 1716.46
315114 7.4816e+06 1761
314582 7.4816e+06 1739.77
315114 7.4822e+06 1966.65
314582 7.4822e+06 1976.45
315114 7.4816e+06 1946.34
314582 7.4816e+06 1962.09
315646 7.4822e+06 1809.44
315114 7.4822e+06 1763.67
315646 7.4816e+06 1771.42
315114 7.4816e+06 1761
315646 7.4822e+06 1980.46
315114 7.4822e+06 1966.65
315646 7.4816e+06 1970.84
315114 7.4816e+06 1946.34
316178 7.4822e+06 1837.27
315646 7.4822e+06 1809.44
316178 7.4816e+06 1787.89
315646 7.4816e+06 1771.42
316178 7.4822e+06 2036.06
315646 7.4822e+06 1980.46
316178 7.4816e+06 2001.01
315646 7.4816e+06 1970.84
312456 7.4816e+06 1740.99
311924 7.4816e+06 1773.83
312456 7.48099e+06 1762.37
312456 7.48099e+06 1762.37
312456 7.4816e+06 1938.5
311924 7.4816e+06 2015.17
312456 7.48099e+06 1961.58
312456 7.48099e+06 1961.58
312987 7.4816e+06 1709.62
312456 7.4816e+06 1740.99
312987 7.48099e+06 1733.36
312456 7.48099e+06 1762.37
312987 7.4816e+06 1874.99
312456 7.4816e+06 1938.5
312987 7.48099e+06 1933.74
312456 7.48099e+06 1961.58
313519 7.4816e+06 1728.07
312987 7.4816e+06 1709.62
313519 7.48099e+06 1693.84
312987 7.48099e+06 1733.36
313519 7.4816e+06 1867.25
312987 7.4816e+06 1874.99
313519 7.48099e+06 1891.28
312987 7.48099e+06 1933.74
314051 7.4816e+06 1710.26
313519 7.4816e+06 1728.07
314051 7.48099e+06 1712.11
313519 7.48099e+06 1693.84
314051 7.4816e+06 1897.83
313519 7.4816e+06 1867.25
314051 7.48099e+06 1876.25
313519 7.48099e+06 1891.28
314582 7.4816e+06 1739.77
314051 7.4816e+06 1710.26
314582 7.48099e+06 1726.88
314051 7.48099e+06 1712.11
314582 7.4816e+06 1962.09
314051 7.4816e+06 1897.83
314582 7.48099e+06 1934.49
314051 7.48099e+06 1876.25
315114 7.4816e+06 1761
314582 7.4816e+06 1739.77
315114 7.48099e+06 1709.66
314582 7.48099e+06 1726.88
315114 7.4816e+06 1946.34
314582 7.4816e+06 1962.09
315114 7.48099e+06 1900.24
314582 7.48099e+06 1934.49
315646 7.4816e+06 1771.42
315114 7.4816e+06 1761
315646 7.48099e+06 1756.64
315114 7.48099e+06 1709.66
315646 7.4816e+06 1970.84
315114 7.4816e+06 1946.34
315646 7.48099e+06 1934.39
315114 7.48099e+06 1900.24
316178 7.4816e+06 1787.89
315646 7.4816e+06 1771.42
316178 7.48099e+06 1790.03
315646 7.48099e+06 1756.64
316178 7.4816e+06 2001.01
315646 7.4816e+06 1970.84
316178 7.48099e+06 1968.06
315646 7.48099e+06 1934.39
312987 7.48099e+06 1733.36
312456 7.48099e+06 1762.37
312987 7.48039e+06 1783.28
312987 7.48039e+06 1783.28
312987 7.48099e+06 1933.74
312456 7.48099e+06 1961.58
312987 7.48039e+06 1954.4
312987 7.48039e+06 1954.4
313519 7.48099e+06 1693.84
312987 7.48099e+06 1733.36
313519 7.48039e+06 1754.27
312987 7.48039e+06 1783.28
313519 7.48099e+06 1891.28
312987 7.48099e+06 1933.74
313519 7.48039e+06 1945.64
312987 7.48039e+06 1954.4
314051 7.48099e+06 1712.11
313519 7.48099e+06 1693.84
314051 7.48039e+06 1678.26
313519 7.48039e+06 1754.27
314051 7.48099e+06 1876.25
313519 7.48099e+06 1891.28
314051 7.48039e+06 1880.73
313519 7.48039e+06 1945.64
314582 7.48099e+06 1726.88
314051 7.48099e+06 1712.11
314582 7.48039e+06 1645.63
314051 7.48039e+06 1678.26
314582 7.48099e+06 1934.49
314051 7.48099e+06 1876.25
314582 7.48039e+06 1833.85
314051 7.48039e+06 1880.73
315114 7.48099e+06 1709.66
314582 7.48099e+06 1726.88
315114 7.48039e+06 1721.5
314582 7.48039e+06 1645.63
315114 7.48099e+06 1900.24
314582 7.48099e+06 1934.49
315114 7.48039e+06 1886.11
314582 7.48039e+06 1833.85
315646 7.48099e+06 1756.64
315114 7.48099e+06 1709.66
315646 7.48039e+06 1811.31
315114 7.48039e+06 1721.5
315646 7.48099e+06 1934.39
315114 7.48099e+06 1900.24
315646 7.48039e+06 1988.48
315114 7.48039e+06 1886.11
316178 7.48099e+06 1790.03
315646 7.48099e+06 1756.64
316178 7.48039e+06 1865.22
315646 7.48039e+06 1811.31
316178 7.48099e+06 1968.06
315646 7.48099e+06 1934.39
316178 7.48039e+06 2047.1
315646 7.48039e+06 1988.48
314582 7.48039e+06 1645.63
314051 7.48039e+06 1678.26
314582 7.47979e+06 1665.93
314582 7.47979e+06 1665.93
314582 7.48039e+06 1833.85
314051 7.48039e+06 1880.73
314582 7.47979e+06 1854.12
314582 7.47979e+06 1854.12
315114 7.48039e+06 1721.5
314582 7.48039e+06 1645.63
315114 7.47979e+06 1764.09
314582 7.47979e+06 1665.93
315114 7.48039e+06 1886.11
314582 7.48039e+06 1833.85
315114 7.47979e+06 1939.58
314582 7.47979e+06 1854.12
315646 7.48039e+06 1811.31
315114 7.48039e+06 1721.5
315646 7.47979e+06 1785.57
315114 7.47979e+06 1764.09
315646 7.48039e+06 1988.48
315114 7.48039e+06 1886.11
315646 7.47979e+06 1958.96
315114 7.47979e+06 1939.58
316178 7.48039e+06 1865.22
315646 7.48039e+06 1811.31
316178 7.47979e+06 1802.99
315646 7.47979e+06 1785.57
316178 7.48039e+06 2047.1
315646 7.48039e+06 1988.48
316178 7.47979e+06 1993.3
315646 7.47979e+06 1958.96
315114 7.47979e+06 1764.09
314582 7.47979e+06 1665.93
315114 7.47919e+06 1754.26
315114 7.47919e+06 1754.26
315114 7.47979e+06 1939.58
314582 7.47979e+06 1854.12
315114 7.47919e+06 1906.83
315114 7.47919e+06 1906.83
315646 7.47979e+06 1785.57
315114 7.47979e+06 1764.09
315646 7.47919e+06 1835.41
315114 7.47919e+06 1754.26
315646 7.47979e+06 1958.96
315114 7.47979e+06 1939.58
315646 7.47919e+06 1950.6
315114 7.47919e+06 1906.83
316178 7.47979e+06 1802.99
315646 7.47979e+06 1785.57
316178 7.47919e+06 1862.28
315646 7.47919e+06 1835.41
316178 7.47979e+06 1993.3
315646 7.47979e+06 1958.96
316178 7.47919e+06 2006.1
315646 7.47919e+06 1950.6

CELLS 52 468
8 0 1 3 2 4 5 7 6
8 8 9 11 10 12 13 15 14
8 16 17 19 18 20 21 23 22
8 24 25 27 26 28 29 31 30
8 32 33 35 34 36 37 39 38
8 40 41 43 42 44 45 47 46
8 48 49 51 50 52 53 55 54
8 56 57 59 58 60 61 63 62
8 64 65 67 66 68 69 71 70
8 72 73 75 74 76 77 79 78
8 80 81 83 82 84 85 87 86
8 88 89 91 90 92 93 95 94
8 96 97 99 98 100 101 103 102
8 104 105 107 106 108 109 111 110
8 112 113 115 114 116 117 119 118
8 120 121 123 122 124 125 127 126
8 128 129 131 130 132 133 135 134
8 136 137 139 138 140 141 143 142
8 144 145 147 146 148 149 151 150
8 152 153 155 154 156 157 159 158
8 160 161 163 162 164 165 167 166
8 168 169 171 170 172 173 175 174
8 176 177 179 178 180 181 183 182
8 184 185 187 186 188 189 191 190
8 192 193 195 194 196 197 199 198
8 200 201 203 202 204 205 207 206
8 208 209 211 210 212 213 215 214
8 216 217 219 218 220 221 223 222
8 224 225 227 226 228 229 231 230
8 232 233 235 234 236 237 239 238
8 240 241 243 242 244 245 247 246
8 248 249 251 250 252 253 255 254
8 256 257 259 258 260 261 263 262
8 264 265 267 266 268 269 271 270
8 272 273 275 274 276 277 279 278
8 280 281 283 282 284 285 287 286
8 288 289 291 290 292 293 295 294
8 296 297 299 298 300 301 303 302
8 304 305 307 306 308 309 311 310
8 312 313 315 314 316 317 319 318
8 320 321 323 322 324 325 327 326
8 328 329 331 330 332 333 335 334
8 336 337 339 338 340 341 343 342
8 344 345 347 346 348 349 351 350
8 352 353 355 354 356 357 359 358
8 360 361 363 362 364 365 367 366
8 368 369 371 370 372 373 375 374
8 376 377 379 378 380 381 383 382
8 384 385 387 386 388 389 391 390
8 392 393 395 394 396 397 399 398
8 400 401 403 402 404 405 407 406
8 408 409 411 410 412 413 415 414

CELL_TYPES 52
12
12
12
12
12
12
12
12
12
12
12
12
12
12
12
12
12
12
12
12
12
12
12
12
12
12
12
12
12
12
12
12
12
12
12
12
12
12
12
12
12
12
12
12
12
12
12
12
12
12
12
12

POINT_DATA 416
SCALARS Sw float
LOOKUP_TABLE default
2.17589e-08 
2.17589e-08 
2.17589e-08 
2.17589e-08 
2.17589e-08 
2.17589e-08 
2.17589e-08 
2.17589e-08 
3.09789e-08 
3.09789e-08 
3.09789e-08 
3.09789e-08 
3.09789e-08 
3.09789e-08 
3.09789e-08 
3.09789e-08 
4.31876e-08 
4.31876e-08 
4.31876e-08 
4.31876e-08 
4.31876e-08 
4.31876e-08 
4.31876e-08 
4.31876e-08 
8.27689e-08 
8.27689e-08 
8.27689e-08 
8.27689e-08 
8.27689e-08 
8.27689e-08 
8.27689e-08 
8.27689e-08 
2.18656e-07 
2.18656e-07 
2.18656e-07 
2.18656e-07 
2.18656e-07 
2.18656e-07 
2.18656e-07 
2.18656e-07 
8.12944e-07 
8.12944e-07 
8.12944e-07 
8.12944e-07 
8.12944e-07 
8.12944e-07 
8.12944e-07 
8.12944e-07 
4.7216e-06 
4.7216e-06 
4.7216e-06 
4.7216e-06 
4.7216e-06 
4.7216e-06 
4.7216e-06 
4.7216e-06 
4.47289e-08 
4.47289e-08 
4.47289e-08 
4.47289e-08 
4.47289e-08 
4.47289e-08 
4.47289e-08 
4.47289e-08 
7.67967e-08 
7.67967e-08 
7.67967e-08 
7.67967e-08 
7.67967e-08 
7.67967e-08 
7.67967e-08 
7.67967e-08 
3.17135e-07 
3.17135e-07 
3.17135e-07 
3.17135e-07 
3.17135e-07 
3.17135e-07 
3.17135e-07 
3.17135e-07 
1.3744e-06 
1.3744e-06 
1.3744e-06 
1.3744e-06 
1.3744e-06 
1.3744e-06 
1.3744e-06 
1.3744e-06 
5.63401e-06 
5.63401e-06 
5.63401e-06 
5.63401e-06 
5.63401e-06 
5.63401e-06 
5.63401e-06 
5.63401e-06 
1.9356e-05 
1.9356e-05 
1.9356e-05 
1.9356e-05 
1.9356e-05 
1.9356e-05 
1.9356e-05 
1.9356e-05 
5.64458e-05 
5.64458e-05 
5.64458e-05 
5.64458e-05 
5.64458e-05 
5.64458e-05 
5.64458e-05 
5.64458e-05 
5.63748e-08 
5.63748e-08 
5.63748e-08 
5.63748e-08 
5.63748e-08 
5.63748e-08 
5.63748e-08 
5.63748e-08 
4.33515e-07 
4.33515e-07 
4.33515e-07 
4.33515e-07 
4.33515e-07 
4.33515e-07 
4.33515e-07 
4.33515e-07 
3.00127e-06 
3.00127e-06 
3.00127e-06 
3.00127e-06 
3.00127e-06 
3.00127e-06 
3.00127e-06 
3.00127e-06 
1.70231e-05 
1.70231e-05 
1.70231e-05 
1.70231e-05 
1.70231e-05 
1.70231e-05 
1.70231e-05 
1.70231e-05 
8.47145e-05 
8.47145e-05 
8.47145e-05 
8.47145e-05 
8.47145e-05 
8.47145e-05 
8.47145e-05 
8.47145e-05 
0.000287588 
0.000287588 
0.000287588 
0.000287588 
0.000287588 
0.000287588 
0.000287588 
0.000287588 
0.000802368 
0.000802368 
0.000802368 
0.000802368 
0.000802368 
0.000802368 
0.000802368 
0.000802368 
0.000955305 
0.000955305 
0.000955305 
0.000955305 
0.000955305 
0.000955305 
0.000955305 
0.000955305 
2.28076e-07 
2.28076e-07 
2.28076e-07 
2.28076e-07 
2.28076e-07 
2.28076e-07 
2.28076e-07 
2.28076e-07 
2.76438e-06 
2.76438e-06 
2.76438e-06 
2.76438e-06 
2.76438e-06 
2.76438e-06 
2.76438e-06 
2.76438e-06 
2.55776e-05 
2.55776e-05 
2.55776e-05 
2.55776e-05 
2.55776e-05 
2.55776e-05 
2.55776e-05 
2.55776e-05 
0.000169995 
0.000169995 
0.000169995 
0.000169995 
0.000169995 
0.000169995 
0.000169995 
0.000169995 
0.000865836 
0.000865836 
0.000865836 
0.000865836 
0.000865836 
0.000865836 
0.000865836 
0.000865836 
0.00279542 
0.00279542 
0.00279542 
0.00279542 
0.00279542 
0.00279542 
0.00279542 
0.00279542 
0.00746626 
0.00746626 
0.00746626 
0.00746626 
0.00746626 
0.00746626 
0.00746626 
0.00746626 
0.00481142 
0.00481142 
0.00481142 
0.00481142 
0.00481142 
0.00481142 
0.00481142 
0.00481142 
1.7781e-06 
1.7781e-06 
1.7781e-06 
1.7781e-06 
1.7781e-06 
1.7781e-06 
1.7781e-06 
1.7781e-06 
2.07185e-05 
2.07185e-05 
2.07185e-05 
2.07185e-05 
2.07185e-05 
2.07185e-05 
2.07185e-05 
2.07185e-05 
0.000192331 
0.000192331 
0.000192331 
0.000192331 
0.000192331 
0.000192331 
0.000192331 
0.000192331 
0.00142569 
0.00142569 
0.00142569 
0.00142569 
0.00142569 
0.00142569 
0.00142569 
0.00142569 
0.00747032 
0.00747032 
0.00747032 
0.00747032 
0.00747032 
0.00747032 
0.00747032 
0.00747032 
0.0215484 
0.0215484 
0.0215484 
0.0215484 
0.0215484 
0.0215484 
0.0215484 
0.0215484 
0.0524167 
0.0524167 
0.0524167 
0.0524167 
0.0524167 
0.0524167 
0.0524167 
0.0524167 
0.034913 
0.034913 
0.034913 
0.034913 
0.034913 
0.034913 
0.034913 
0.034913 
0.000143405 
0.000143405 
0.000143405 
0.000143405 
0.000143405 
0.000143405 
0.000143405 
0.000143405 
0.0010201 
0.0010201 
0.0010201 
0.0010201 
0.0010201 
0.0010201 
0.0010201 
0.0010201 
0.00768978 
0.00768978 
0.00768978 
0.00768978 
0.00768978 
0.00768978 
0.00768978 
0.00768978 
0.0447612 
0.0447612 
0.0447612 
0.0447612 
0.0447612 
0.0447612 
0.0447612 
0.0447612 
0.101375 
0.101375 
0.101375 
0.101375 
0.101375 
0.101375 
0.101375 
0.101375 
0.234896 
0.234896 
0.234896 
0.234896 
0.234896 
0.234896 
0.234896 
0.234896 
0.156817 
0.156817 
0.156817 
0.156817 
0.156817 
0.156817 
0.156817 
0.156817 
0.160657 
0.160657 
0.160657 
0.160657 
0.160657 
0.160657 
0.160657 
0.160657 
0.326757 
0.326757 
0.326757 
0.326757 
0.326757 
0.326757 
0.326757 
0.326757 
0.657288 
0.657288 
0.657288 
0.657288 
0.657288 
0.657288 
0.657288 
0.657288 
0.424399 
0.424399 
0.424399 
0.424399 
0.424399 
0.424399 
0.424399 
0.424399 
0.443196 
0.443196 
0.443196 
0.443196 
0.443196 
0.443196 
0.443196 
0.443196 
1.16805 
1.16805 
1.16805 
1.16805 
1.16805 
1.16805 
1.16805 
1.16805 
0.707259 
0.707259 
0.707259 
0.707259 
0.707259 
0.707259 
0.707259 
0.707259 

SCALARS So float
LOOKUP_TABLE default
1 
1 
1 
1 
1 
1 
1 
1 
1 
1 
1 
1 
1 
1 
1 
1 
1 
1 
1 
1 
1 
1 
1 
1 
1 
1 
1 
1 
1 
1 
1 
1 
1 
1 
1 
1 
1 
1 
1 
1 
0.999999 
0.999999 
0.999999 
0.999999 
0.999999 
0.999999 
0.999999 
0.999999 
0.999995 
0.999995 
0.999995 
0.999995 
0.999995 
0.999995 
0.999995 
0.999995 
1 
1 
1 
1 
1 
1 
1 
1 
1 
1 
1 
1 
1 
1 
1 
1 
1 
1 
1 
1 
1 
1 
1 
1 
0.999999 
0.999999 
0.999999 
0.999999 
0.999999 
0.999999 
0.999999 
0.999999 
0.999994 
0.999994 
0.999994 
0.999994 
0.999994 
0.999994 
0.999994 
0.999994 
0.999981 
0.999981 
0.999981 
0.999981 
0.999981 
0.999981 
0.999981 
0.999981 
0.999944 
0.999944 
0.999944 
0.999944 
0.999944 
0.999944 
0.999944 
0.999944 
1 
1 
1 
1 
1 
1 
1 
1 
1 
1 
1 
1 
1 
1 
1 
1 
0.999997 
0.999997 
0.999997 
0.999997 
0.999997 
0.999997 
0.999997 
0.999997 
0.999983 
0.999983 
0.999983 
0.999983 
0.999983 
0.999983 
0.999983 
0.999983 
0.999915 
0.999915 
0.999915 
0.999915 
0.999915 
0.999915 
0.999915 
0.999915 
0.999712 
0.999712 
0.999712 
0.999712 
0.999712 
0.999712 
0.999712 
0.999712 
0.999198 
0.999198 
0.999198 
0.999198 
0.999198 
0.999198 
0.999198 
0.999198 
0.999045 
0.999045 
0.999045 
0.999045 
0.999045 
0.999045 
0.999045 
0.999045 
1 
1 
1 
1 
1 
1 
1 
1 
0.999997 
0.999997 
0.999997 
0.999997 
0.999997 
0.999997 
0.999997 
0.999997 
0.999974 
0.999974 
0.999974 
0.999974 
0.999974 
0.999974 
0.999974 
0.999974 
0.99983 
0.99983 
0.99983 
0.99983 
0.99983 
0.99983 
0.99983 
0.99983 
0.999134 
0.999134 
0.999134 
0.999134 
0.999134 
0.999134 
0.999134 
0.999134 
0.997205 
0.997205 
0.997205 
0.997205 
0.997205 
0.997205 
0.997205 
0.997205 
0.992534 
0.992534 
0.992534 
0.992534 
0.992534 
0.992534 
0.992534 
0.992534 
0.995189 
0.995189 
0.995189 
0.995189 
0.995189 
0.995189 
0.995189 
0.995189 
0.999998 
0.999998 
0.999998 
0.999998 
0.999998 
0.999998 
0.999998 
0.999998 
0.999979 
0.999979 
0.999979 
0.999979 
0.999979 
0.999979 
0.999979 
0.999979 
0.999808 
0.999808 
0.999808 
0.999808 
0.999808 
0.999808 
0.999808 
0.999808 
0.998574 
0.998574 
0.998574 
0.998574 
0.998574 
0.998574 
0.998574 
0.998574 
0.99253 
0.99253 
0.99253 
0.99253 
0.99253 
0.99253 
0.99253 
0.99253 
0.978452 
0.978452 
0.978452 
0.978452 
0.978452 
0.978452 
0.978452 
0.978452 
0.947583 
0.947583 
0.947583 
0.947583 
0.947583 
0.947583 
0.947583 
0.947583 
0.965087 
0.965087 
0.965087 
0.965087 
0.965087 
0.965087 
0.965087 
0.965087 
0.999857 
0.999857 
0.999857 
0.999857 
0.999857 
0.999857 
0.999857 
0.999857 
0.99898 
0.99898 
0.99898 
0.99898 
0.99898 
0.99898 
0.99898 
0.99898 
0.99231 
0.99231 
0.99231 
0.99231 
0.99231 
0.99231 
0.99231 
0.99231 
0.955239 
0.955239 
0.955239 
0.955239 
0.955239 
0.955239 
0.955239 
0.955239 
0.898625 
0.898625 
0.898625 
0.898625 
0.898625 
0.898625 
0.898625 
0.898625 
0.765104 
0.765104 
0.765104 
0.765104 
0.765104 
0.765104 
0.765104 
0.765104 
0.843183 
0.843183 
0.843183 
0.843183 
0.843183 
0.843183 
0.843183 
0.843183 
0.839343 
0.839343 
0.839343 
0.839343 
0.839343 
0.839343 
0.839343 
0.839343 
0.673243 
0.673243 
0.673243 
0.673243 
0.673243 
0.673243 
0.673243 
0.673243 
0.342712 
0.342712 
0.342712 
0.342712 
0.342712 
0.342712 
0.342712 
0.342712 
0.575601 
0.575601 
0.575601 
0.575601 
0.575601 
0.575601 
0.575601 
0.575601 
0.556804 
0.556804 
0.556804 
0.556804 
0.556804 
0.556804 
0.556804 
0.556804 
-0.168046 
-0.168046 
-0.168046 
-0.168046 
-0.168046 
-0.168046 
-0.168046 
-0.168046 
0.292741 
0.292741 
0.292741 
0.292741 
0.292741 
0.292741 
0.292741 
0.292741 

