# vtk DataFile Version 3.0
Arquivo gerado por PZ
ASCII

DATASET UNSTRUCTURED_GRID
POINTS 200 float
0 0 0
0 10 0
2 0 0
2 10 0
2 0 0
2 10 0
4 0 0
4 10 0
4 0 0
4 10 0
6 0 0
6 10 0
6 0 0
6 10 0
8 0 0
8 10 0
8 0 0
8 10 0
10 0 0
10 10 0
10 0 0
10 10 0
12 0 0
12 10 0
12 0 0
12 10 0
14 0 0
14 10 0
14 0 0
14 10 0
16 0 0
16 10 0
16 0 0
16 10 0
18 0 0
18 10 0
18 0 0
18 10 0
20 0 0
20 10 0
20 0 0
20 10 0
22 0 0
22 10 0
22 0 0
22 10 0
24 0 0
24 10 0
24 0 0
24 10 0
26 0 0
26 10 0
26 0 0
26 10 0
28 0 0
28 10 0
28 0 0
28 10 0
30 0 0
30 10 0
30 0 0
30 10 0
32 0 0
32 10 0
32 0 0
32 10 0
34 0 0
34 10 0
34 0 0
34 10 0
36 0 0
36 10 0
36 0 0
36 10 0
38 0 0
38 10 0
38 0 0
38 10 0
40 0 0
40 10 0
40 0 0
40 10 0
42 0 0
42 10 0
42 0 0
42 10 0
44 0 0
44 10 0
44 0 0
44 10 0
46 0 0
46 10 0
46 0 0
46 10 0
48 0 0
48 10 0
48 0 0
48 10 0
50 0 0
50 10 0
50 0 0
50 10 0
52 0 0
52 10 0
52 0 0
52 10 0
54 0 0
54 10 0
54 0 0
54 10 0
56 0 0
56 10 0
56 0 0
56 10 0
58 0 0
58 10 0
58 0 0
58 10 0
60 0 0
60 10 0
60 0 0
60 10 0
62 0 0
62 10 0
62 0 0
62 10 0
64 0 0
64 10 0
64 0 0
64 10 0
66 0 0
66 10 0
66 0 0
66 10 0
68 0 0
68 10 0
68 0 0
68 10 0
70 0 0
70 10 0
70 0 0
70 10 0
72 0 0
72 10 0
72 0 0
72 10 0
74 0 0
74 10 0
74 0 0
74 10 0
76 0 0
76 10 0
76 0 0
76 10 0
78 0 0
78 10 0
78 0 0
78 10 0
80 0 0
80 10 0
80 0 0
80 10 0
82 0 0
82 10 0
82 0 0
82 10 0
84 0 0
84 10 0
84 0 0
84 10 0
86 0 0
86 10 0
86 0 0
86 10 0
88 0 0
88 10 0
88 0 0
88 10 0
90 0 0
90 10 0
90 0 0
90 10 0
92 0 0
92 10 0
92 0 0
92 10 0
94 0 0
94 10 0
94 0 0
94 10 0
96 0 0
96 10 0
96 0 0
96 10 0
98 0 0
98 10 0
98 0 0
98 10 0
100 0 0
100 10 0

CELLS 50 250
4 0 2 3 1
4 4 6 7 5
4 8 10 11 9
4 12 14 15 13
4 16 18 19 17
4 20 22 23 21
4 24 26 27 25
4 28 30 31 29
4 32 34 35 33
4 36 38 39 37
4 40 42 43 41
4 44 46 47 45
4 48 50 51 49
4 52 54 55 53
4 56 58 59 57
4 60 62 63 61
4 64 66 67 65
4 68 70 71 69
4 72 74 75 73
4 76 78 79 77
4 80 82 83 81
4 84 86 87 85
4 88 90 91 89
4 92 94 95 93
4 96 98 99 97
4 100 102 103 101
4 104 106 107 105
4 108 110 111 109
4 112 114 115 113
4 116 118 119 117
4 120 122 123 121
4 124 126 127 125
4 128 130 131 129
4 132 134 135 133
4 136 138 139 137
4 140 142 143 141
4 144 146 147 145
4 148 150 151 149
4 152 154 155 153
4 156 158 159 157
4 160 162 163 161
4 164 166 167 165
4 168 170 171 169
4 172 174 175 173
4 176 178 179 177
4 180 182 183 181
4 184 186 187 185
4 188 190 191 189
4 192 194 195 193
4 196 198 199 197

CELL_TYPES 50
9
9
9
9
9
9
9
9
9
9
9
9
9
9
9
9
9
9
9
9
9
9
9
9
9
9
9
9
9
9
9
9
9
9
9
9
9
9
9
9
9
9
9
9
9
9
9
9
9
9

POINT_DATA 200
SCALARS Sw float
LOOKUP_TABLE default
0.000220143 
0.000220143 
0.000220143 
0.000220143 
0.000318087 
0.000318087 
0.000318087 
0.000318087 
0.000457196 
0.000457196 
0.000457196 
0.000457196 
0.000653585 
0.000653585 
0.000653585 
0.000653585 
0.000929116 
0.000929116 
0.000929116 
0.000929116 
0.00131319 
0.00131319 
0.00131319 
0.00131319 
0.00184498 
0.00184498 
0.00184498 
0.00184498 
0.0025762 
0.0025762 
0.0025762 
0.0025762 
0.00357437 
0.00357437 
0.00357437 
0.00357437 
0.00492672 
0.00492672 
0.00492672 
0.00492672 
0.00674465 
0.00674465 
0.00674465 
0.00674465 
0.00916854 
0.00916854 
0.00916854 
0.00916854 
0.012373 
0.012373 
0.012373 
0.012373 
0.016572 
0.016572 
0.016572 
0.016572 
0.0220233 
0.0220233 
0.0220233 
0.0220233 
0.0290321 
0.0290321 
0.0290321 
0.0290321 
0.0379524 
0.0379524 
0.0379524 
0.0379524 
0.0491853 
0.0491853 
0.0491853 
0.0491853 
0.0631735 
0.0631735 
0.0631735 
0.0631735 
0.0803898 
0.0803898 
0.0803898 
0.0803898 
0.101319 
0.101319 
0.101319 
0.101319 
0.126435 
0.126435 
0.126435 
0.126435 
0.156163 
0.156163 
0.156163 
0.156163 
0.190847 
0.190847 
0.190847 
0.190847 
0.230696 
0.230696 
0.230696 
0.230696 
0.275742 
0.275742 
0.275742 
0.275742 
0.325794 
0.325794 
0.325794 
0.325794 
0.380396 
0.380396 
0.380396 
0.380396 
0.438807 
0.438807 
0.438807 
0.438807 
0.5 
0.5 
0.5 
0.5 
0.562685 
0.562685 
0.562685 
0.562685 
0.625371 
0.625371 
0.625371 
0.625371 
0.686449 
0.686449 
0.686449 
0.686449 
0.744312 
0.744312 
0.744312 
0.744312 
0.797484 
0.797484 
0.797484 
0.797484 
0.844748 
0.844748 
0.844748 
0.844748 
0.885259 
0.885259 
0.885259 
0.885259 
0.918622 
0.918622 
0.918622 
0.918622 
0.944908 
0.944908 
0.944908 
0.944908 
0.964622 
0.964622 
0.964622 
0.964622 
0.978613 
0.978613 
0.978613 
0.978613 
0.98794 
0.98794 
0.98794 
0.98794 
0.99373 
0.99373 
0.99373 
0.99373 
0.997038 
0.997038 
0.997038 
0.997038 
0.998753 
0.998753 
0.998753 
0.998753 
0.999545 
0.999545 
0.999545 
0.999545 
0.999861 
0.999861 
0.999861 
0.999861 
0.999967 
0.999967 
0.999967 
0.999967 
0.999995 
0.999995 
0.999995 
0.999995 
1 
1 
1 
1 

SCALARS So float
LOOKUP_TABLE default
0.99978 
0.99978 
0.99978 
0.99978 
0.999682 
0.999682 
0.999682 
0.999682 
0.999543 
0.999543 
0.999543 
0.999543 
0.999346 
0.999346 
0.999346 
0.999346 
0.999071 
0.999071 
0.999071 
0.999071 
0.998687 
0.998687 
0.998687 
0.998687 
0.998155 
0.998155 
0.998155 
0.998155 
0.997424 
0.997424 
0.997424 
0.997424 
0.996426 
0.996426 
0.996426 
0.996426 
0.995073 
0.995073 
0.995073 
0.995073 
0.993255 
0.993255 
0.993255 
0.993255 
0.990831 
0.990831 
0.990831 
0.990831 
0.987627 
0.987627 
0.987627 
0.987627 
0.983428 
0.983428 
0.983428 
0.983428 
0.977977 
0.977977 
0.977977 
0.977977 
0.970968 
0.970968 
0.970968 
0.970968 
0.962048 
0.962048 
0.962048 
0.962048 
0.950815 
0.950815 
0.950815 
0.950815 
0.936826 
0.936826 
0.936826 
0.936826 
0.91961 
0.91961 
0.91961 
0.91961 
0.898681 
0.898681 
0.898681 
0.898681 
0.873565 
0.873565 
0.873565 
0.873565 
0.843837 
0.843837 
0.843837 
0.843837 
0.809153 
0.809153 
0.809153 
0.809153 
0.769304 
0.769304 
0.769304 
0.769304 
0.724258 
0.724258 
0.724258 
0.724258 
0.674206 
0.674206 
0.674206 
0.674206 
0.619604 
0.619604 
0.619604 
0.619604 
0.561193 
0.561193 
0.561193 
0.561193 
0.5 
0.5 
0.5 
0.5 
0.437315 
0.437315 
0.437315 
0.437315 
0.374629 
0.374629 
0.374629 
0.374629 
0.313551 
0.313551 
0.313551 
0.313551 
0.255688 
0.255688 
0.255688 
0.255688 
0.202516 
0.202516 
0.202516 
0.202516 
0.155252 
0.155252 
0.155252 
0.155252 
0.114741 
0.114741 
0.114741 
0.114741 
0.0813778 
0.0813778 
0.0813778 
0.0813778 
0.0550921 
0.0550921 
0.0550921 
0.0550921 
0.0353778 
0.0353778 
0.0353778 
0.0353778 
0.021387 
0.021387 
0.021387 
0.021387 
0.0120598 
0.0120598 
0.0120598 
0.0120598 
0.00627048 
0.00627048 
0.00627048 
0.00627048 
0.00296231 
0.00296231 
0.00296231 
0.00296231 
0.00124696 
0.00124696 
0.00124696 
0.00124696 
0.00045526 
0.00045526 
0.00045526 
0.00045526 
0.000138581 
0.000138581 
0.000138581 
0.000138581 
3.3021e-05 
3.3021e-05 
3.3021e-05 
3.3021e-05 
5.48363e-06 
5.48363e-06 
5.48363e-06 
5.48363e-06 
4.76837e-07 
4.76837e-07 
4.76837e-07 
4.76837e-07 

