# vtk DataFile Version 3.0
Arquivo gerado por PZ
ASCII

DATASET UNSTRUCTURED_GRID
POINTS 416 float
312456 7.4834e+06 1735.53
312456 7.484e+06 1737.58
311924 7.4834e+06 1707.04
311924 7.484e+06 1759.65
312456 7.4834e+06 1988.16
312456 7.484e+06 1977.31
311924 7.4834e+06 1959.37
311924 7.484e+06 2013.07
312987 7.4834e+06 1723
312987 7.484e+06 1709.12
312456 7.4834e+06 1735.53
312456 7.484e+06 1737.58
312987 7.4834e+06 1960.78
312987 7.484e+06 1943.4
312456 7.4834e+06 1988.16
312456 7.484e+06 1977.31
313519 7.4834e+06 1714.13
313519 7.484e+06 1726.61
312987 7.4834e+06 1723
312987 7.484e+06 1709.12
313519 7.4834e+06 1889.1
313519 7.484e+06 1936.63
312987 7.4834e+06 1960.78
312987 7.484e+06 1943.4
314051 7.4834e+06 1708.11
314051 7.484e+06 1760.5
313519 7.4834e+06 1714.13
313519 7.484e+06 1726.61
314051 7.4834e+06 1893.48
314051 7.484e+06 1997.11
313519 7.4834e+06 1889.1
313519 7.484e+06 1936.63
314582 7.4834e+06 1780.13
314582 7.484e+06 1768
314051 7.4834e+06 1708.11
314051 7.484e+06 1760.5
314582 7.4834e+06 1980.48
314582 7.484e+06 1990.1
314051 7.4834e+06 1893.48
314051 7.484e+06 1997.11
315114 7.4834e+06 1775.68
315114 7.484e+06 1809.25
314582 7.4834e+06 1780.13
314582 7.484e+06 1768
315114 7.4834e+06 1956.47
315114 7.484e+06 1993.86
314582 7.4834e+06 1980.48
314582 7.484e+06 1990.1
315646 7.4834e+06 1819.19
315114 7.484e+06 1809.25
315114 7.4834e+06 1775.68
315114 7.4834e+06 1775.68
315646 7.4834e+06 1986.31
315114 7.484e+06 1993.86
315114 7.4834e+06 1956.47
315114 7.4834e+06 1956.47
312456 7.4834e+06 1735.53
311924 7.4834e+06 1707.04
312456 7.4828e+06 1742.67
311924 7.4828e+06 1710.62
312456 7.4834e+06 1988.16
311924 7.4834e+06 1959.37
312456 7.4828e+06 1954.1
311924 7.4828e+06 1946.05
312987 7.4834e+06 1723
312456 7.4834e+06 1735.53
312987 7.4828e+06 1735.09
312456 7.4828e+06 1742.67
312987 7.4834e+06 1960.78
312456 7.4834e+06 1988.16
312987 7.4828e+06 1950.88
312456 7.4828e+06 1954.1
313519 7.4834e+06 1714.13
312987 7.4834e+06 1723
313519 7.4828e+06 1741.47
312987 7.4828e+06 1735.09
313519 7.4834e+06 1889.1
312987 7.4834e+06 1960.78
313519 7.4828e+06 1989.14
312987 7.4828e+06 1950.88
314051 7.4834e+06 1708.11
313519 7.4834e+06 1714.13
314051 7.4828e+06 1780
313519 7.4828e+06 1741.47
314051 7.4834e+06 1893.48
313519 7.4834e+06 1889.1
314051 7.4828e+06 1994.86
313519 7.4828e+06 1989.14
314582 7.4834e+06 1780.13
314051 7.4834e+06 1708.11
314582 7.4828e+06 1762.69
314051 7.4828e+06 1780
314582 7.4834e+06 1980.48
314051 7.4834e+06 1893.48
314582 7.4828e+06 1971.27
314051 7.4828e+06 1994.86
315114 7.4834e+06 1775.68
314582 7.4834e+06 1780.13
315114 7.4828e+06 1790.84
314582 7.4828e+06 1762.69
315114 7.4834e+06 1956.47
314582 7.4834e+06 1980.48
315114 7.4828e+06 1979.84
314582 7.4828e+06 1971.27
315646 7.4834e+06 1819.19
315114 7.4834e+06 1775.68
315646 7.4828e+06 1829.79
315114 7.4828e+06 1790.84
315646 7.4834e+06 1986.31
315114 7.4834e+06 1956.47
315646 7.4828e+06 1962.19
315114 7.4828e+06 1979.84
312456 7.4828e+06 1742.67
311924 7.4828e+06 1710.62
312456 7.4822e+06 1744.57
311924 7.4822e+06 1764.58
312456 7.4828e+06 1954.1
311924 7.4828e+06 1946.05
312456 7.4822e+06 1958.54
311924 7.4822e+06 2034.98
312987 7.4828e+06 1735.09
312456 7.4828e+06 1742.67
312987 7.4822e+06 1735.53
312456 7.4822e+06 1744.57
312987 7.4828e+06 1950.88
312456 7.4828e+06 1954.1
312987 7.4822e+06 1906.37
312456 7.4822e+06 1958.54
313519 7.4828e+06 1741.47
312987 7.4828e+06 1735.09
313519 7.4822e+06 1726.75
312987 7.4822e+06 1735.53
313519 7.4828e+06 1989.14
312987 7.4828e+06 1950.88
313519 7.4822e+06 1933.51
312987 7.4822e+06 1906.37
314051 7.4828e+06 1780
313519 7.4828e+06 1741.47
314051 7.4822e+06 1688.3
313519 7.4822e+06 1726.75
314051 7.4828e+06 1994.86
313519 7.4828e+06 1989.14
314051 7.4822e+06 1915.36
313519 7.4822e+06 1933.51
314582 7.4828e+06 1762.69
314051 7.4828e+06 1780
314582 7.4822e+06 1716.46
314051 7.4822e+06 1688.3
314582 7.4828e+06 1971.27
314051 7.4828e+06 1994.86
314582 7.4822e+06 1976.45
314051 7.4822e+06 1915.36
315114 7.4828e+06 1790.84
314582 7.4828e+06 1762.69
315114 7.4822e+06 1763.67
314582 7.4822e+06 1716.46
315114 7.4828e+06 1979.84
314582 7.4828e+06 1971.27
315114 7.4822e+06 1966.65
314582 7.4822e+06 1976.45
315646 7.4828e+06 1829.79
315114 7.4828e+06 1790.84
315646 7.4822e+06 1809.44
315114 7.4822e+06 1763.67
315646 7.4828e+06 1962.19
315114 7.4828e+06 1979.84
315646 7.4822e+06 1980.46
315114 7.4822e+06 1966.65
316178 7.4822e+06 1837.27
315646 7.4828e+06 1829.79
315646 7.4822e+06 1809.44
315646 7.4822e+06 1809.44
316178 7.4822e+06 2036.06
315646 7.4828e+06 1962.19
315646 7.4822e+06 1980.46
315646 7.4822e+06 1980.46
312456 7.4822e+06 1744.57
311924 7.4822e+06 1764.58
312456 7.4816e+06 1740.99
311924 7.4816e+06 1773.83
312456 7.4822e+06 1958.54
311924 7.4822e+06 2034.98
312456 7.4816e+06 1938.5
311924 7.4816e+06 2015.17
312987 7.4822e+06 1735.53
312456 7.4822e+06 1744.57
312987 7.4816e+06 1709.62
312456 7.4816e+06 1740.99
312987 7.4822e+06 1906.37
312456 7.4822e+06 1958.54
312987 7.4816e+06 1874.99
312456 7.4816e+06 1938.5
313519 7.4822e+06 1726.75
312987 7.4822e+06 1735.53
313519 7.4816e+06 1728.07
312987 7.4816e+06 1709.62
313519 7.4822e+06 1933.51
312987 7.4822e+06 1906.37
313519 7.4816e+06 1867.25
312987 7.4816e+06 1874.99
314051 7.4822e+06 1688.3
313519 7.4822e+06 1726.75
314051 7.4816e+06 1710.26
313519 7.4816e+06 1728.07
314051 7.4822e+06 1915.36
313519 7.4822e+06 1933.51
314051 7.4816e+06 1897.83
313519 7.4816e+06 1867.25
314582 7.4822e+06 1716.46
314051 7.4822e+06 1688.3
314582 7.4816e+06 1739.77
314051 7.4816e+06 1710.26
314582 7.4822e+06 1976.45
314051 7.4822e+06 1915.36
314582 7.4816e+06 1962.09
314051 7.4816e+06 1897.83
315114 7.4822e+06 1763.67
314582 7.4822e+06 1716.46
315114 7.4816e+06 1761
314582 7.4816e+06 1739.77
315114 7.4822e+06 1966.65
314582 7.4822e+06 1976.45
315114 7.4816e+06 1946.34
314582 7.4816e+06 1962.09
315646 7.4822e+06 1809.44
315114 7.4822e+06 1763.67
315646 7.4816e+06 1771.42
315114 7.4816e+06 1761
315646 7.4822e+06 1980.46
315114 7.4822e+06 1966.65
315646 7.4816e+06 1970.84
315114 7.4816e+06 1946.34
316178 7.4822e+06 1837.27
315646 7.4822e+06 1809.44
316178 7.4816e+06 1787.89
315646 7.4816e+06 1771.42
316178 7.4822e+06 2036.06
315646 7.4822e+06 1980.46
316178 7.4816e+06 2001.01
315646 7.4816e+06 1970.84
312456 7.4816e+06 1740.99
311924 7.4816e+06 1773.83
312456 7.48099e+06 1762.37
312456 7.48099e+06 1762.37
312456 7.4816e+06 1938.5
311924 7.4816e+06 2015.17
312456 7.48099e+06 1961.58
312456 7.48099e+06 1961.58
312987 7.4816e+06 1709.62
312456 7.4816e+06 1740.99
312987 7.48099e+06 1733.36
312456 7.48099e+06 1762.37
312987 7.4816e+06 1874.99
312456 7.4816e+06 1938.5
312987 7.48099e+06 1933.74
312456 7.48099e+06 1961.58
313519 7.4816e+06 1728.07
312987 7.4816e+06 1709.62
313519 7.48099e+06 1693.84
312987 7.48099e+06 1733.36
313519 7.4816e+06 1867.25
312987 7.4816e+06 1874.99
313519 7.48099e+06 1891.28
312987 7.48099e+06 1933.74
314051 7.4816e+06 1710.26
313519 7.4816e+06 1728.07
314051 7.48099e+06 1712.11
313519 7.48099e+06 1693.84
314051 7.4816e+06 1897.83
313519 7.4816e+06 1867.25
314051 7.48099e+06 1876.25
313519 7.48099e+06 1891.28
314582 7.4816e+06 1739.77
314051 7.4816e+06 1710.26
314582 7.48099e+06 1726.88
314051 7.48099e+06 1712.11
314582 7.4816e+06 1962.09
314051 7.4816e+06 1897.83
314582 7.48099e+06 1934.49
314051 7.48099e+06 1876.25
315114 7.4816e+06 1761
314582 7.4816e+06 1739.77
315114 7.48099e+06 1709.66
314582 7.48099e+06 1726.88
315114 7.4816e+06 1946.34
314582 7.4816e+06 1962.09
315114 7.48099e+06 1900.24
314582 7.48099e+06 1934.49
315646 7.4816e+06 1771.42
315114 7.4816e+06 1761
315646 7.48099e+06 1756.64
315114 7.48099e+06 1709.66
315646 7.4816e+06 1970.84
315114 7.4816e+06 1946.34
315646 7.48099e+06 1934.39
315114 7.48099e+06 1900.24
316178 7.4816e+06 1787.89
315646 7.4816e+06 1771.42
316178 7.48099e+06 1790.03
315646 7.48099e+06 1756.64
316178 7.4816e+06 2001.01
315646 7.4816e+06 1970.84
316178 7.48099e+06 1968.06
315646 7.48099e+06 1934.39
312987 7.48099e+06 1733.36
312456 7.48099e+06 1762.37
312987 7.48039e+06 1783.28
312987 7.48039e+06 1783.28
312987 7.48099e+06 1933.74
312456 7.48099e+06 1961.58
312987 7.48039e+06 1954.4
312987 7.48039e+06 1954.4
313519 7.48099e+06 1693.84
312987 7.48099e+06 1733.36
313519 7.48039e+06 1754.27
312987 7.48039e+06 1783.28
313519 7.48099e+06 1891.28
312987 7.48099e+06 1933.74
313519 7.48039e+06 1945.64
312987 7.48039e+06 1954.4
314051 7.48099e+06 1712.11
313519 7.48099e+06 1693.84
314051 7.48039e+06 1678.26
313519 7.48039e+06 1754.27
314051 7.48099e+06 1876.25
313519 7.48099e+06 1891.28
314051 7.48039e+06 1880.73
313519 7.48039e+06 1945.64
314582 7.48099e+06 1726.88
314051 7.48099e+06 1712.11
314582 7.48039e+06 1645.63
314051 7.48039e+06 1678.26
314582 7.48099e+06 1934.49
314051 7.48099e+06 1876.25
314582 7.48039e+06 1833.85
314051 7.48039e+06 1880.73
315114 7.48099e+06 1709.66
314582 7.48099e+06 1726.88
315114 7.48039e+06 1721.5
314582 7.48039e+06 1645.63
315114 7.48099e+06 1900.24
314582 7.48099e+06 1934.49
315114 7.48039e+06 1886.11
314582 7.48039e+06 1833.85
315646 7.48099e+06 1756.64
315114 7.48099e+06 1709.66
315646 7.48039e+06 1811.31
315114 7.48039e+06 1721.5
315646 7.48099e+06 1934.39
315114 7.48099e+06 1900.24
315646 7.48039e+06 1988.48
315114 7.48039e+06 1886.11
316178 7.48099e+06 1790.03
315646 7.48099e+06 1756.64
316178 7.48039e+06 1865.22
315646 7.48039e+06 1811.31
316178 7.48099e+06 1968.06
315646 7.48099e+06 1934.39
316178 7.48039e+06 2047.1
315646 7.48039e+06 1988.48
314582 7.48039e+06 1645.63
314051 7.48039e+06 1678.26
314582 7.47979e+06 1665.93
314582 7.47979e+06 1665.93
314582 7.48039e+06 1833.85
314051 7.48039e+06 1880.73
314582 7.47979e+06 1854.12
314582 7.47979e+06 1854.12
315114 7.48039e+06 1721.5
314582 7.48039e+06 1645.63
315114 7.47979e+06 1764.09
314582 7.47979e+06 1665.93
315114 7.48039e+06 1886.11
314582 7.48039e+06 1833.85
315114 7.47979e+06 1939.58
314582 7.47979e+06 1854.12
315646 7.48039e+06 1811.31
315114 7.48039e+06 1721.5
315646 7.47979e+06 1785.57
315114 7.47979e+06 1764.09
315646 7.48039e+06 1988.48
315114 7.48039e+06 1886.11
315646 7.47979e+06 1958.96
315114 7.47979e+06 1939.58
316178 7.48039e+06 1865.22
315646 7.48039e+06 1811.31
316178 7.47979e+06 1802.99
315646 7.47979e+06 1785.57
316178 7.48039e+06 2047.1
315646 7.48039e+06 1988.48
316178 7.47979e+06 1993.3
315646 7.47979e+06 1958.96
315114 7.47979e+06 1764.09
314582 7.47979e+06 1665.93
315114 7.47919e+06 1754.26
315114 7.47919e+06 1754.26
315114 7.47979e+06 1939.58
314582 7.47979e+06 1854.12
315114 7.47919e+06 1906.83
315114 7.47919e+06 1906.83
315646 7.47979e+06 1785.57
315114 7.47979e+06 1764.09
315646 7.47919e+06 1835.41
315114 7.47919e+06 1754.26
315646 7.47979e+06 1958.96
315114 7.47979e+06 1939.58
315646 7.47919e+06 1950.6
315114 7.47919e+06 1906.83
316178 7.47979e+06 1802.99
315646 7.47979e+06 1785.57
316178 7.47919e+06 1862.28
315646 7.47919e+06 1835.41
316178 7.47979e+06 1993.3
315646 7.47979e+06 1958.96
316178 7.47919e+06 2006.1
315646 7.47919e+06 1950.6

CELLS 52 468
8 0 1 3 2 4 5 7 6
8 8 9 11 10 12 13 15 14
8 16 17 19 18 20 21 23 22
8 24 25 27 26 28 29 31 30
8 32 33 35 34 36 37 39 38
8 40 41 43 42 44 45 47 46
8 48 49 51 50 52 53 55 54
8 56 57 59 58 60 61 63 62
8 64 65 67 66 68 69 71 70
8 72 73 75 74 76 77 79 78
8 80 81 83 82 84 85 87 86
8 88 89 91 90 92 93 95 94
8 96 97 99 98 100 101 103 102
8 104 105 107 106 108 109 111 110
8 112 113 115 114 116 117 119 118
8 120 121 123 122 124 125 127 126
8 128 129 131 130 132 133 135 134
8 136 137 139 138 140 141 143 142
8 144 145 147 146 148 149 151 150
8 152 153 155 154 156 157 159 158
8 160 161 163 162 164 165 167 166
8 168 169 171 170 172 173 175 174
8 176 177 179 178 180 181 183 182
8 184 185 187 186 188 189 191 190
8 192 193 195 194 196 197 199 198
8 200 201 203 202 204 205 207 206
8 208 209 211 210 212 213 215 214
8 216 217 219 218 220 221 223 222
8 224 225 227 226 228 229 231 230
8 232 233 235 234 236 237 239 238
8 240 241 243 242 244 245 247 246
8 248 249 251 250 252 253 255 254
8 256 257 259 258 260 261 263 262
8 264 265 267 266 268 269 271 270
8 272 273 275 274 276 277 279 278
8 280 281 283 282 284 285 287 286
8 288 289 291 290 292 293 295 294
8 296 297 299 298 300 301 303 302
8 304 305 307 306 308 309 311 310
8 312 313 315 314 316 317 319 318
8 320 321 323 322 324 325 327 326
8 328 329 331 330 332 333 335 334
8 336 337 339 338 340 341 343 342
8 344 345 347 346 348 349 351 350
8 352 353 355 354 356 357 359 358
8 360 361 363 362 364 365 367 366
8 368 369 371 370 372 373 375 374
8 376 377 379 378 380 381 383 382
8 384 385 387 386 388 389 391 390
8 392 393 395 394 396 397 399 398
8 400 401 403 402 404 405 407 406
8 408 409 411 410 412 413 415 414

CELL_TYPES 52
12
12
12
12
12
12
12
12
12
12
12
12
12
12
12
12
12
12
12
12
12
12
12
12
12
12
12
12
12
12
12
12
12
12
12
12
12
12
12
12
12
12
12
12
12
12
12
12
12
12
12
12

POINT_DATA 416
SCALARS Sw float
LOOKUP_TABLE default
2.75768e-07 
2.75768e-07 
2.75768e-07 
2.75768e-07 
2.75768e-07 
2.75768e-07 
2.75768e-07 
2.75768e-07 
6.22288e-07 
6.22288e-07 
6.22288e-07 
6.22288e-07 
6.22288e-07 
6.22288e-07 
6.22288e-07 
6.22288e-07 
1.38616e-06 
1.38616e-06 
1.38616e-06 
1.38616e-06 
1.38616e-06 
1.38616e-06 
1.38616e-06 
1.38616e-06 
3.44653e-06 
3.44653e-06 
3.44653e-06 
3.44653e-06 
3.44653e-06 
3.44653e-06 
3.44653e-06 
3.44653e-06 
9.27278e-06 
9.27278e-06 
9.27278e-06 
9.27278e-06 
9.27278e-06 
9.27278e-06 
9.27278e-06 
9.27278e-06 
2.79914e-05 
2.79914e-05 
2.79914e-05 
2.79914e-05 
2.79914e-05 
2.79914e-05 
2.79914e-05 
2.79914e-05 
0.000121152 
0.000121152 
0.000121152 
0.000121152 
0.000121152 
0.000121152 
0.000121152 
0.000121152 
1.41949e-06 
1.41949e-06 
1.41949e-06 
1.41949e-06 
1.41949e-06 
1.41949e-06 
1.41949e-06 
1.41949e-06 
5.00797e-06 
5.00797e-06 
5.00797e-06 
5.00797e-06 
5.00797e-06 
5.00797e-06 
5.00797e-06 
5.00797e-06 
1.91133e-05 
1.91133e-05 
1.91133e-05 
1.91133e-05 
1.91133e-05 
1.91133e-05 
1.91133e-05 
1.91133e-05 
6.16056e-05 
6.16056e-05 
6.16056e-05 
6.16056e-05 
6.16056e-05 
6.16056e-05 
6.16056e-05 
6.16056e-05 
0.000178803 
0.000178803 
0.000178803 
0.000178803 
0.000178803 
0.000178803 
0.000178803 
0.000178803 
0.000435454 
0.000435454 
0.000435454 
0.000435454 
0.000435454 
0.000435454 
0.000435454 
0.000435454 
0.00093051 
0.00093051 
0.00093051 
0.00093051 
0.00093051 
0.00093051 
0.00093051 
0.00093051 
2.83014e-06 
2.83014e-06 
2.83014e-06 
2.83014e-06 
2.83014e-06 
2.83014e-06 
2.83014e-06 
2.83014e-06 
2.64245e-05 
2.64245e-05 
2.64245e-05 
2.64245e-05 
2.64245e-05 
2.64245e-05 
2.64245e-05 
2.64245e-05 
0.000130984 
0.000130984 
0.000130984 
0.000130984 
0.000130984 
0.000130984 
0.000130984 
0.000130984 
0.000506169 
0.000506169 
0.000506169 
0.000506169 
0.000506169 
0.000506169 
0.000506169 
0.000506169 
0.00171559 
0.00171559 
0.00171559 
0.00171559 
0.00171559 
0.00171559 
0.00171559 
0.00171559 
0.00404585 
0.00404585 
0.00404585 
0.00404585 
0.00404585 
0.00404585 
0.00404585 
0.00404585 
0.00837922 
0.00837922 
0.00837922 
0.00837922 
0.00837922 
0.00837922 
0.00837922 
0.00837922 
0.0102436 
0.0102436 
0.0102436 
0.0102436 
0.0102436 
0.0102436 
0.0102436 
0.0102436 
1.3225e-05 
1.3225e-05 
1.3225e-05 
1.3225e-05 
1.3225e-05 
1.3225e-05 
1.3225e-05 
1.3225e-05 
0.00012109 
0.00012109 
0.00012109 
0.00012109 
0.00012109 
0.00012109 
0.00012109 
0.00012109 
0.00074325 
0.00074325 
0.00074325 
0.00074325 
0.00074325 
0.00074325 
0.00074325 
0.00074325 
0.0032507 
0.0032507 
0.0032507 
0.0032507 
0.0032507 
0.0032507 
0.0032507 
0.0032507 
0.0109435 
0.0109435 
0.0109435 
0.0109435 
0.0109435 
0.0109435 
0.0109435 
0.0109435 
0.0240547 
0.0240547 
0.0240547 
0.0240547 
0.0240547 
0.0240547 
0.0240547 
0.0240547 
0.0472976 
0.0472976 
0.0472976 
0.0472976 
0.0472976 
0.0472976 
0.0472976 
0.0472976 
0.0318481 
0.0318481 
0.0318481 
0.0318481 
0.0318481 
0.0318481 
0.0318481 
0.0318481 
7.84666e-05 
7.84666e-05 
7.84666e-05 
7.84666e-05 
7.84666e-05 
7.84666e-05 
7.84666e-05 
7.84666e-05 
0.000614917 
0.000614917 
0.000614917 
0.000614917 
0.000614917 
0.000614917 
0.000614917 
0.000614917 
0.00365545 
0.00365545 
0.00365545 
0.00365545 
0.00365545 
0.00365545 
0.00365545 
0.00365545 
0.0172519 
0.0172519 
0.0172519 
0.0172519 
0.0172519 
0.0172519 
0.0172519 
0.0172519 
0.0580721 
0.0580721 
0.0580721 
0.0580721 
0.0580721 
0.0580721 
0.0580721 
0.0580721 
0.112238 
0.112238 
0.112238 
0.112238 
0.112238 
0.112238 
0.112238 
0.112238 
0.201509 
0.201509 
0.201509 
0.201509 
0.201509 
0.201509 
0.201509 
0.201509 
0.141517 
0.141517 
0.141517 
0.141517 
0.141517 
0.141517 
0.141517 
0.141517 
0.00278792 
0.00278792 
0.00278792 
0.00278792 
0.00278792 
0.00278792 
0.00278792 
0.00278792 
0.0124367 
0.0124367 
0.0124367 
0.0124367 
0.0124367 
0.0124367 
0.0124367 
0.0124367 
0.057712 
0.057712 
0.057712 
0.057712 
0.057712 
0.057712 
0.057712 
0.057712 
0.2102 
0.2102 
0.2102 
0.2102 
0.2102 
0.2102 
0.2102 
0.2102 
0.315488 
0.315488 
0.315488 
0.315488 
0.315488 
0.315488 
0.315488 
0.315488 
0.550907 
0.550907 
0.550907 
0.550907 
0.550907 
0.550907 
0.550907 
0.550907 
0.389473 
0.389473 
0.389473 
0.389473 
0.389473 
0.389473 
0.389473 
0.389473 
0.472034 
0.472034 
0.472034 
0.472034 
0.472034 
0.472034 
0.472034 
0.472034 
0.627163 
0.627163 
0.627163 
0.627163 
0.627163 
0.627163 
0.627163 
0.627163 
0.989622 
0.989622 
0.989622 
0.989622 
0.989622 
0.989622 
0.989622 
0.989622 
0.680352 
0.680352 
0.680352 
0.680352 
0.680352 
0.680352 
0.680352 
0.680352 
0.567963 
0.567963 
0.567963 
0.567963 
0.567963 
0.567963 
0.567963 
0.567963 
1.28845 
1.28845 
1.28845 
1.28845 
1.28845 
1.28845 
1.28845 
1.28845 
0.812078 
0.812078 
0.812078 
0.812078 
0.812078 
0.812078 
0.812078 
0.812078 

SCALARS So float
LOOKUP_TABLE default
1 
1 
1 
1 
1 
1 
1 
1 
0.999999 
0.999999 
0.999999 
0.999999 
0.999999 
0.999999 
0.999999 
0.999999 
0.999999 
0.999999 
0.999999 
0.999999 
0.999999 
0.999999 
0.999999 
0.999999 
0.999997 
0.999997 
0.999997 
0.999997 
0.999997 
0.999997 
0.999997 
0.999997 
0.999991 
0.999991 
0.999991 
0.999991 
0.999991 
0.999991 
0.999991 
0.999991 
0.999972 
0.999972 
0.999972 
0.999972 
0.999972 
0.999972 
0.999972 
0.999972 
0.999879 
0.999879 
0.999879 
0.999879 
0.999879 
0.999879 
0.999879 
0.999879 
0.999999 
0.999999 
0.999999 
0.999999 
0.999999 
0.999999 
0.999999 
0.999999 
0.999995 
0.999995 
0.999995 
0.999995 
0.999995 
0.999995 
0.999995 
0.999995 
0.999981 
0.999981 
0.999981 
0.999981 
0.999981 
0.999981 
0.999981 
0.999981 
0.999938 
0.999938 
0.999938 
0.999938 
0.999938 
0.999938 
0.999938 
0.999938 
0.999821 
0.999821 
0.999821 
0.999821 
0.999821 
0.999821 
0.999821 
0.999821 
0.999565 
0.999565 
0.999565 
0.999565 
0.999565 
0.999565 
0.999565 
0.999565 
0.999069 
0.999069 
0.999069 
0.999069 
0.999069 
0.999069 
0.999069 
0.999069 
0.999997 
0.999997 
0.999997 
0.999997 
0.999997 
0.999997 
0.999997 
0.999997 
0.999974 
0.999974 
0.999974 
0.999974 
0.999974 
0.999974 
0.999974 
0.999974 
0.999869 
0.999869 
0.999869 
0.999869 
0.999869 
0.999869 
0.999869 
0.999869 
0.999494 
0.999494 
0.999494 
0.999494 
0.999494 
0.999494 
0.999494 
0.999494 
0.998284 
0.998284 
0.998284 
0.998284 
0.998284 
0.998284 
0.998284 
0.998284 
0.995954 
0.995954 
0.995954 
0.995954 
0.995954 
0.995954 
0.995954 
0.995954 
0.991621 
0.991621 
0.991621 
0.991621 
0.991621 
0.991621 
0.991621 
0.991621 
0.989756 
0.989756 
0.989756 
0.989756 
0.989756 
0.989756 
0.989756 
0.989756 
0.999987 
0.999987 
0.999987 
0.999987 
0.999987 
0.999987 
0.999987 
0.999987 
0.999879 
0.999879 
0.999879 
0.999879 
0.999879 
0.999879 
0.999879 
0.999879 
0.999257 
0.999257 
0.999257 
0.999257 
0.999257 
0.999257 
0.999257 
0.999257 
0.996749 
0.996749 
0.996749 
0.996749 
0.996749 
0.996749 
0.996749 
0.996749 
0.989056 
0.989056 
0.989056 
0.989056 
0.989056 
0.989056 
0.989056 
0.989056 
0.975945 
0.975945 
0.975945 
0.975945 
0.975945 
0.975945 
0.975945 
0.975945 
0.952702 
0.952702 
0.952702 
0.952702 
0.952702 
0.952702 
0.952702 
0.952702 
0.968152 
0.968152 
0.968152 
0.968152 
0.968152 
0.968152 
0.968152 
0.968152 
0.999922 
0.999922 
0.999922 
0.999922 
0.999922 
0.999922 
0.999922 
0.999922 
0.999385 
0.999385 
0.999385 
0.999385 
0.999385 
0.999385 
0.999385 
0.999385 
0.996345 
0.996345 
0.996345 
0.996345 
0.996345 
0.996345 
0.996345 
0.996345 
0.982748 
0.982748 
0.982748 
0.982748 
0.982748 
0.982748 
0.982748 
0.982748 
0.941928 
0.941928 
0.941928 
0.941928 
0.941928 
0.941928 
0.941928 
0.941928 
0.887762 
0.887762 
0.887762 
0.887762 
0.887762 
0.887762 
0.887762 
0.887762 
0.798491 
0.798491 
0.798491 
0.798491 
0.798491 
0.798491 
0.798491 
0.798491 
0.858483 
0.858483 
0.858483 
0.858483 
0.858483 
0.858483 
0.858483 
0.858483 
0.997212 
0.997212 
0.997212 
0.997212 
0.997212 
0.997212 
0.997212 
0.997212 
0.987563 
0.987563 
0.987563 
0.987563 
0.987563 
0.987563 
0.987563 
0.987563 
0.942288 
0.942288 
0.942288 
0.942288 
0.942288 
0.942288 
0.942288 
0.942288 
0.7898 
0.7898 
0.7898 
0.7898 
0.7898 
0.7898 
0.7898 
0.7898 
0.684512 
0.684512 
0.684512 
0.684512 
0.684512 
0.684512 
0.684512 
0.684512 
0.449093 
0.449093 
0.449093 
0.449093 
0.449093 
0.449093 
0.449093 
0.449093 
0.610527 
0.610527 
0.610527 
0.610527 
0.610527 
0.610527 
0.610527 
0.610527 
0.527966 
0.527966 
0.527966 
0.527966 
0.527966 
0.527966 
0.527966 
0.527966 
0.372837 
0.372837 
0.372837 
0.372837 
0.372837 
0.372837 
0.372837 
0.372837 
0.0103777 
0.0103777 
0.0103777 
0.0103777 
0.0103777 
0.0103777 
0.0103777 
0.0103777 
0.319648 
0.319648 
0.319648 
0.319648 
0.319648 
0.319648 
0.319648 
0.319648 
0.432037 
0.432037 
0.432037 
0.432037 
0.432037 
0.432037 
0.432037 
0.432037 
-0.288451 
-0.288451 
-0.288451 
-0.288451 
-0.288451 
-0.288451 
-0.288451 
-0.288451 
0.187922 
0.187922 
0.187922 
0.187922 
0.187922 
0.187922 
0.187922 
0.187922 

