# vtk DataFile Version 3.0
Arquivo gerado por PZ
ASCII

DATASET UNSTRUCTURED_GRID
POINTS 200 float
0 0 0
0 10 0
2 0 0
2 10 0
2 0 0
2 10 0
4 0 0
4 10 0
4 0 0
4 10 0
6 0 0
6 10 0
6 0 0
6 10 0
8 0 0
8 10 0
8 0 0
8 10 0
10 0 0
10 10 0
10 0 0
10 10 0
12 0 0
12 10 0
12 0 0
12 10 0
14 0 0
14 10 0
14 0 0
14 10 0
16 0 0
16 10 0
16 0 0
16 10 0
18 0 0
18 10 0
18 0 0
18 10 0
20 0 0
20 10 0
20 0 0
20 10 0
22 0 0
22 10 0
22 0 0
22 10 0
24 0 0
24 10 0
24 0 0
24 10 0
26 0 0
26 10 0
26 0 0
26 10 0
28 0 0
28 10 0
28 0 0
28 10 0
30 0 0
30 10 0
30 0 0
30 10 0
32 0 0
32 10 0
32 0 0
32 10 0
34 0 0
34 10 0
34 0 0
34 10 0
36 0 0
36 10 0
36 0 0
36 10 0
38 0 0
38 10 0
38 0 0
38 10 0
40 0 0
40 10 0
40 0 0
40 10 0
42 0 0
42 10 0
42 0 0
42 10 0
44 0 0
44 10 0
44 0 0
44 10 0
46 0 0
46 10 0
46 0 0
46 10 0
48 0 0
48 10 0
48 0 0
48 10 0
50 0 0
50 10 0
50 0 0
50 10 0
52 0 0
52 10 0
52 0 0
52 10 0
54 0 0
54 10 0
54 0 0
54 10 0
56 0 0
56 10 0
56 0 0
56 10 0
58 0 0
58 10 0
58 0 0
58 10 0
60 0 0
60 10 0
60 0 0
60 10 0
62 0 0
62 10 0
62 0 0
62 10 0
64 0 0
64 10 0
64 0 0
64 10 0
66 0 0
66 10 0
66 0 0
66 10 0
68 0 0
68 10 0
68 0 0
68 10 0
70 0 0
70 10 0
70 0 0
70 10 0
72 0 0
72 10 0
72 0 0
72 10 0
74 0 0
74 10 0
74 0 0
74 10 0
76 0 0
76 10 0
76 0 0
76 10 0
78 0 0
78 10 0
78 0 0
78 10 0
80 0 0
80 10 0
80 0 0
80 10 0
82 0 0
82 10 0
82 0 0
82 10 0
84 0 0
84 10 0
84 0 0
84 10 0
86 0 0
86 10 0
86 0 0
86 10 0
88 0 0
88 10 0
88 0 0
88 10 0
90 0 0
90 10 0
90 0 0
90 10 0
92 0 0
92 10 0
92 0 0
92 10 0
94 0 0
94 10 0
94 0 0
94 10 0
96 0 0
96 10 0
96 0 0
96 10 0
98 0 0
98 10 0
98 0 0
98 10 0
100 0 0
100 10 0

CELLS 50 250
4 0 2 3 1
4 4 6 7 5
4 8 10 11 9
4 12 14 15 13
4 16 18 19 17
4 20 22 23 21
4 24 26 27 25
4 28 30 31 29
4 32 34 35 33
4 36 38 39 37
4 40 42 43 41
4 44 46 47 45
4 48 50 51 49
4 52 54 55 53
4 56 58 59 57
4 60 62 63 61
4 64 66 67 65
4 68 70 71 69
4 72 74 75 73
4 76 78 79 77
4 80 82 83 81
4 84 86 87 85
4 88 90 91 89
4 92 94 95 93
4 96 98 99 97
4 100 102 103 101
4 104 106 107 105
4 108 110 111 109
4 112 114 115 113
4 116 118 119 117
4 120 122 123 121
4 124 126 127 125
4 128 130 131 129
4 132 134 135 133
4 136 138 139 137
4 140 142 143 141
4 144 146 147 145
4 148 150 151 149
4 152 154 155 153
4 156 158 159 157
4 160 162 163 161
4 164 166 167 165
4 168 170 171 169
4 172 174 175 173
4 176 178 179 177
4 180 182 183 181
4 184 186 187 185
4 188 190 191 189
4 192 194 195 193
4 196 198 199 197

CELL_TYPES 50
9
9
9
9
9
9
9
9
9
9
9
9
9
9
9
9
9
9
9
9
9
9
9
9
9
9
9
9
9
9
9
9
9
9
9
9
9
9
9
9
9
9
9
9
9
9
9
9
9
9

POINT_DATA 200
SCALARS Sw float
LOOKUP_TABLE default
2.65722e-08 
2.65722e-08 
2.65722e-08 
2.65722e-08 
4.5053e-08 
4.5053e-08 
4.5053e-08 
4.5053e-08 
7.62738e-08 
7.62738e-08 
7.62738e-08 
7.62738e-08 
1.28851e-07 
1.28851e-07 
1.28851e-07 
1.28851e-07 
2.17099e-07 
2.17099e-07 
2.17099e-07 
2.17099e-07 
3.6471e-07 
3.6471e-07 
3.6471e-07 
3.6471e-07 
6.10722e-07 
6.10722e-07 
6.10722e-07 
6.10722e-07 
1.01919e-06 
1.01919e-06 
1.01919e-06 
1.01919e-06 
1.69473e-06 
1.69473e-06 
1.69473e-06 
1.69473e-06 
2.80737e-06 
2.80737e-06 
2.80737e-06 
2.80737e-06 
4.6321e-06 
4.6321e-06 
4.6321e-06 
4.6321e-06 
7.61125e-06 
7.61125e-06 
7.61125e-06 
7.61125e-06 
1.24524e-05 
1.24524e-05 
1.24524e-05 
1.24524e-05 
2.02805e-05 
2.02805e-05 
2.02805e-05 
2.02805e-05 
3.28737e-05 
3.28737e-05 
3.28737e-05 
3.28737e-05 
5.30227e-05 
5.30227e-05 
5.30227e-05 
5.30227e-05 
8.5078e-05 
8.5078e-05 
8.5078e-05 
8.5078e-05 
0.00013577 
0.00013577 
0.00013577 
0.00013577 
0.000215429 
0.000215429 
0.000215429 
0.000215429 
0.000339775 
0.000339775 
0.000339775 
0.000339775 
0.00053251 
0.00053251 
0.00053251 
0.00053251 
0.000829027 
0.000829027 
0.000829027 
0.000829027 
0.0012816 
0.0012816 
0.0012816 
0.0012816 
0.00196659 
0.00196659 
0.00196659 
0.00196659 
0.00299406 
0.00299406 
0.00299406 
0.00299406 
0.00452059 
0.00452059 
0.00452059 
0.00452059 
0.00676549 
0.00676549 
0.00676549 
0.00676549 
0.0100308 
0.0100308 
0.0100308 
0.0100308 
0.0147247 
0.0147247 
0.0147247 
0.0147247 
0.021387 
0.021387 
0.021387 
0.021387 
0.0307142 
0.0307142 
0.0307142 
0.0307142 
0.0435793 
0.0435793 
0.0435793 
0.0435793 
0.0610391 
0.0610391 
0.0610391 
0.0610391 
0.0843188 
0.0843188 
0.0843188 
0.0843188 
0.114761 
0.114761 
0.114761 
0.114761 
0.153728 
0.153728 
0.153728 
0.153728 
0.202436 
0.202436 
0.202436 
0.202436 
0.261734 
0.261734 
0.261734 
0.261734 
0.331812 
0.331812 
0.331812 
0.331812 
0.411901 
0.411901 
0.411901 
0.411901 
0.5 
0.5 
0.5 
0.5 
0.592735 
0.592735 
0.592735 
0.592735 
0.685471 
0.685471 
0.685471 
0.685471 
0.772751 
0.772751 
0.772751 
0.772751 
0.849121 
0.849121 
0.849121 
0.849121 
0.910217 
0.910217 
0.910217 
0.910217 
0.953857 
0.953857 
0.953857 
0.953857 
0.980713 
0.980713 
0.980713 
0.980713 
0.994141 
0.994141 
0.994141 
0.994141 
0.999023 
0.999023 
0.999023 
0.999023 

SCALARS So float
LOOKUP_TABLE default
1 
1 
1 
1 
1 
1 
1 
1 
1 
1 
1 
1 
1 
1 
1 
1 
1 
1 
1 
1 
1 
1 
1 
1 
0.999999 
0.999999 
0.999999 
0.999999 
0.999999 
0.999999 
0.999999 
0.999999 
0.999998 
0.999998 
0.999998 
0.999998 
0.999997 
0.999997 
0.999997 
0.999997 
0.999995 
0.999995 
0.999995 
0.999995 
0.999992 
0.999992 
0.999992 
0.999992 
0.999988 
0.999988 
0.999988 
0.999988 
0.99998 
0.99998 
0.99998 
0.99998 
0.999967 
0.999967 
0.999967 
0.999967 
0.999947 
0.999947 
0.999947 
0.999947 
0.999915 
0.999915 
0.999915 
0.999915 
0.999864 
0.999864 
0.999864 
0.999864 
0.999785 
0.999785 
0.999785 
0.999785 
0.99966 
0.99966 
0.99966 
0.99966 
0.999467 
0.999467 
0.999467 
0.999467 
0.999171 
0.999171 
0.999171 
0.999171 
0.998718 
0.998718 
0.998718 
0.998718 
0.998033 
0.998033 
0.998033 
0.998033 
0.997006 
0.997006 
0.997006 
0.997006 
0.995479 
0.995479 
0.995479 
0.995479 
0.993235 
0.993235 
0.993235 
0.993235 
0.989969 
0.989969 
0.989969 
0.989969 
0.985275 
0.985275 
0.985275 
0.985275 
0.978613 
0.978613 
0.978613 
0.978613 
0.969286 
0.969286 
0.969286 
0.969286 
0.956421 
0.956421 
0.956421 
0.956421 
0.938961 
0.938961 
0.938961 
0.938961 
0.915681 
0.915681 
0.915681 
0.915681 
0.885239 
0.885239 
0.885239 
0.885239 
0.846272 
0.846272 
0.846272 
0.846272 
0.797564 
0.797564 
0.797564 
0.797564 
0.738266 
0.738266 
0.738266 
0.738266 
0.668188 
0.668188 
0.668188 
0.668188 
0.588099 
0.588099 
0.588099 
0.588099 
0.5 
0.5 
0.5 
0.5 
0.407265 
0.407265 
0.407265 
0.407265 
0.314529 
0.314529 
0.314529 
0.314529 
0.227249 
0.227249 
0.227249 
0.227249 
0.150879 
0.150879 
0.150879 
0.150879 
0.0897827 
0.0897827 
0.0897827 
0.0897827 
0.0461426 
0.0461426 
0.0461426 
0.0461426 
0.0192871 
0.0192871 
0.0192871 
0.0192871 
0.00585938 
0.00585938 
0.00585938 
0.00585938 
0.000976563 
0.000976563 
0.000976563 
0.000976563 

