# vtk DataFile Version 3.0
Arquivo gerado por PZ
ASCII

DATASET UNSTRUCTURED_GRID
POINTS 416 float
312456 7.4834e+06 1735.53
312456 7.484e+06 1737.58
311924 7.4834e+06 1707.04
311924 7.484e+06 1759.65
312456 7.4834e+06 1988.16
312456 7.484e+06 1977.31
311924 7.4834e+06 1959.37
311924 7.484e+06 2013.07
312987 7.4834e+06 1723
312987 7.484e+06 1709.12
312456 7.4834e+06 1735.53
312456 7.484e+06 1737.58
312987 7.4834e+06 1960.78
312987 7.484e+06 1943.4
312456 7.4834e+06 1988.16
312456 7.484e+06 1977.31
313519 7.4834e+06 1714.13
313519 7.484e+06 1726.61
312987 7.4834e+06 1723
312987 7.484e+06 1709.12
313519 7.4834e+06 1889.1
313519 7.484e+06 1936.63
312987 7.4834e+06 1960.78
312987 7.484e+06 1943.4
314051 7.4834e+06 1708.11
314051 7.484e+06 1760.5
313519 7.4834e+06 1714.13
313519 7.484e+06 1726.61
314051 7.4834e+06 1893.48
314051 7.484e+06 1997.11
313519 7.4834e+06 1889.1
313519 7.484e+06 1936.63
314582 7.4834e+06 1780.13
314582 7.484e+06 1768
314051 7.4834e+06 1708.11
314051 7.484e+06 1760.5
314582 7.4834e+06 1980.48
314582 7.484e+06 1990.1
314051 7.4834e+06 1893.48
314051 7.484e+06 1997.11
315114 7.4834e+06 1775.68
315114 7.484e+06 1809.25
314582 7.4834e+06 1780.13
314582 7.484e+06 1768
315114 7.4834e+06 1956.47
315114 7.484e+06 1993.86
314582 7.4834e+06 1980.48
314582 7.484e+06 1990.1
315646 7.4834e+06 1819.19
315114 7.484e+06 1809.25
315114 7.4834e+06 1775.68
315114 7.4834e+06 1775.68
315646 7.4834e+06 1986.31
315114 7.484e+06 1993.86
315114 7.4834e+06 1956.47
315114 7.4834e+06 1956.47
312456 7.4834e+06 1735.53
311924 7.4834e+06 1707.04
312456 7.4828e+06 1742.67
311924 7.4828e+06 1710.62
312456 7.4834e+06 1988.16
311924 7.4834e+06 1959.37
312456 7.4828e+06 1954.1
311924 7.4828e+06 1946.05
312987 7.4834e+06 1723
312456 7.4834e+06 1735.53
312987 7.4828e+06 1735.09
312456 7.4828e+06 1742.67
312987 7.4834e+06 1960.78
312456 7.4834e+06 1988.16
312987 7.4828e+06 1950.88
312456 7.4828e+06 1954.1
313519 7.4834e+06 1714.13
312987 7.4834e+06 1723
313519 7.4828e+06 1741.47
312987 7.4828e+06 1735.09
313519 7.4834e+06 1889.1
312987 7.4834e+06 1960.78
313519 7.4828e+06 1989.14
312987 7.4828e+06 1950.88
314051 7.4834e+06 1708.11
313519 7.4834e+06 1714.13
314051 7.4828e+06 1780
313519 7.4828e+06 1741.47
314051 7.4834e+06 1893.48
313519 7.4834e+06 1889.1
314051 7.4828e+06 1994.86
313519 7.4828e+06 1989.14
314582 7.4834e+06 1780.13
314051 7.4834e+06 1708.11
314582 7.4828e+06 1762.69
314051 7.4828e+06 1780
314582 7.4834e+06 1980.48
314051 7.4834e+06 1893.48
314582 7.4828e+06 1971.27
314051 7.4828e+06 1994.86
315114 7.4834e+06 1775.68
314582 7.4834e+06 1780.13
315114 7.4828e+06 1790.84
314582 7.4828e+06 1762.69
315114 7.4834e+06 1956.47
314582 7.4834e+06 1980.48
315114 7.4828e+06 1979.84
314582 7.4828e+06 1971.27
315646 7.4834e+06 1819.19
315114 7.4834e+06 1775.68
315646 7.4828e+06 1829.79
315114 7.4828e+06 1790.84
315646 7.4834e+06 1986.31
315114 7.4834e+06 1956.47
315646 7.4828e+06 1962.19
315114 7.4828e+06 1979.84
312456 7.4828e+06 1742.67
311924 7.4828e+06 1710.62
312456 7.4822e+06 1744.57
311924 7.4822e+06 1764.58
312456 7.4828e+06 1954.1
311924 7.4828e+06 1946.05
312456 7.4822e+06 1958.54
311924 7.4822e+06 2034.98
312987 7.4828e+06 1735.09
312456 7.4828e+06 1742.67
312987 7.4822e+06 1735.53
312456 7.4822e+06 1744.57
312987 7.4828e+06 1950.88
312456 7.4828e+06 1954.1
312987 7.4822e+06 1906.37
312456 7.4822e+06 1958.54
313519 7.4828e+06 1741.47
312987 7.4828e+06 1735.09
313519 7.4822e+06 1726.75
312987 7.4822e+06 1735.53
313519 7.4828e+06 1989.14
312987 7.4828e+06 1950.88
313519 7.4822e+06 1933.51
312987 7.4822e+06 1906.37
314051 7.4828e+06 1780
313519 7.4828e+06 1741.47
314051 7.4822e+06 1688.3
313519 7.4822e+06 1726.75
314051 7.4828e+06 1994.86
313519 7.4828e+06 1989.14
314051 7.4822e+06 1915.36
313519 7.4822e+06 1933.51
314582 7.4828e+06 1762.69
314051 7.4828e+06 1780
314582 7.4822e+06 1716.46
314051 7.4822e+06 1688.3
314582 7.4828e+06 1971.27
314051 7.4828e+06 1994.86
314582 7.4822e+06 1976.45
314051 7.4822e+06 1915.36
315114 7.4828e+06 1790.84
314582 7.4828e+06 1762.69
315114 7.4822e+06 1763.67
314582 7.4822e+06 1716.46
315114 7.4828e+06 1979.84
314582 7.4828e+06 1971.27
315114 7.4822e+06 1966.65
314582 7.4822e+06 1976.45
315646 7.4828e+06 1829.79
315114 7.4828e+06 1790.84
315646 7.4822e+06 1809.44
315114 7.4822e+06 1763.67
315646 7.4828e+06 1962.19
315114 7.4828e+06 1979.84
315646 7.4822e+06 1980.46
315114 7.4822e+06 1966.65
316178 7.4822e+06 1837.27
315646 7.4828e+06 1829.79
315646 7.4822e+06 1809.44
315646 7.4822e+06 1809.44
316178 7.4822e+06 2036.06
315646 7.4828e+06 1962.19
315646 7.4822e+06 1980.46
315646 7.4822e+06 1980.46
312456 7.4822e+06 1744.57
311924 7.4822e+06 1764.58
312456 7.4816e+06 1740.99
311924 7.4816e+06 1773.83
312456 7.4822e+06 1958.54
311924 7.4822e+06 2034.98
312456 7.4816e+06 1938.5
311924 7.4816e+06 2015.17
312987 7.4822e+06 1735.53
312456 7.4822e+06 1744.57
312987 7.4816e+06 1709.62
312456 7.4816e+06 1740.99
312987 7.4822e+06 1906.37
312456 7.4822e+06 1958.54
312987 7.4816e+06 1874.99
312456 7.4816e+06 1938.5
313519 7.4822e+06 1726.75
312987 7.4822e+06 1735.53
313519 7.4816e+06 1728.07
312987 7.4816e+06 1709.62
313519 7.4822e+06 1933.51
312987 7.4822e+06 1906.37
313519 7.4816e+06 1867.25
312987 7.4816e+06 1874.99
314051 7.4822e+06 1688.3
313519 7.4822e+06 1726.75
314051 7.4816e+06 1710.26
313519 7.4816e+06 1728.07
314051 7.4822e+06 1915.36
313519 7.4822e+06 1933.51
314051 7.4816e+06 1897.83
313519 7.4816e+06 1867.25
314582 7.4822e+06 1716.46
314051 7.4822e+06 1688.3
314582 7.4816e+06 1739.77
314051 7.4816e+06 1710.26
314582 7.4822e+06 1976.45
314051 7.4822e+06 1915.36
314582 7.4816e+06 1962.09
314051 7.4816e+06 1897.83
315114 7.4822e+06 1763.67
314582 7.4822e+06 1716.46
315114 7.4816e+06 1761
314582 7.4816e+06 1739.77
315114 7.4822e+06 1966.65
314582 7.4822e+06 1976.45
315114 7.4816e+06 1946.34
314582 7.4816e+06 1962.09
315646 7.4822e+06 1809.44
315114 7.4822e+06 1763.67
315646 7.4816e+06 1771.42
315114 7.4816e+06 1761
315646 7.4822e+06 1980.46
315114 7.4822e+06 1966.65
315646 7.4816e+06 1970.84
315114 7.4816e+06 1946.34
316178 7.4822e+06 1837.27
315646 7.4822e+06 1809.44
316178 7.4816e+06 1787.89
315646 7.4816e+06 1771.42
316178 7.4822e+06 2036.06
315646 7.4822e+06 1980.46
316178 7.4816e+06 2001.01
315646 7.4816e+06 1970.84
312456 7.4816e+06 1740.99
311924 7.4816e+06 1773.83
312456 7.48099e+06 1762.37
312456 7.48099e+06 1762.37
312456 7.4816e+06 1938.5
311924 7.4816e+06 2015.17
312456 7.48099e+06 1961.58
312456 7.48099e+06 1961.58
312987 7.4816e+06 1709.62
312456 7.4816e+06 1740.99
312987 7.48099e+06 1733.36
312456 7.48099e+06 1762.37
312987 7.4816e+06 1874.99
312456 7.4816e+06 1938.5
312987 7.48099e+06 1933.74
312456 7.48099e+06 1961.58
313519 7.4816e+06 1728.07
312987 7.4816e+06 1709.62
313519 7.48099e+06 1693.84
312987 7.48099e+06 1733.36
313519 7.4816e+06 1867.25
312987 7.4816e+06 1874.99
313519 7.48099e+06 1891.28
312987 7.48099e+06 1933.74
314051 7.4816e+06 1710.26
313519 7.4816e+06 1728.07
314051 7.48099e+06 1712.11
313519 7.48099e+06 1693.84
314051 7.4816e+06 1897.83
313519 7.4816e+06 1867.25
314051 7.48099e+06 1876.25
313519 7.48099e+06 1891.28
314582 7.4816e+06 1739.77
314051 7.4816e+06 1710.26
314582 7.48099e+06 1726.88
314051 7.48099e+06 1712.11
314582 7.4816e+06 1962.09
314051 7.4816e+06 1897.83
314582 7.48099e+06 1934.49
314051 7.48099e+06 1876.25
315114 7.4816e+06 1761
314582 7.4816e+06 1739.77
315114 7.48099e+06 1709.66
314582 7.48099e+06 1726.88
315114 7.4816e+06 1946.34
314582 7.4816e+06 1962.09
315114 7.48099e+06 1900.24
314582 7.48099e+06 1934.49
315646 7.4816e+06 1771.42
315114 7.4816e+06 1761
315646 7.48099e+06 1756.64
315114 7.48099e+06 1709.66
315646 7.4816e+06 1970.84
315114 7.4816e+06 1946.34
315646 7.48099e+06 1934.39
315114 7.48099e+06 1900.24
316178 7.4816e+06 1787.89
315646 7.4816e+06 1771.42
316178 7.48099e+06 1790.03
315646 7.48099e+06 1756.64
316178 7.4816e+06 2001.01
315646 7.4816e+06 1970.84
316178 7.48099e+06 1968.06
315646 7.48099e+06 1934.39
312987 7.48099e+06 1733.36
312456 7.48099e+06 1762.37
312987 7.48039e+06 1783.28
312987 7.48039e+06 1783.28
312987 7.48099e+06 1933.74
312456 7.48099e+06 1961.58
312987 7.48039e+06 1954.4
312987 7.48039e+06 1954.4
313519 7.48099e+06 1693.84
312987 7.48099e+06 1733.36
313519 7.48039e+06 1754.27
312987 7.48039e+06 1783.28
313519 7.48099e+06 1891.28
312987 7.48099e+06 1933.74
313519 7.48039e+06 1945.64
312987 7.48039e+06 1954.4
314051 7.48099e+06 1712.11
313519 7.48099e+06 1693.84
314051 7.48039e+06 1678.26
313519 7.48039e+06 1754.27
314051 7.48099e+06 1876.25
313519 7.48099e+06 1891.28
314051 7.48039e+06 1880.73
313519 7.48039e+06 1945.64
314582 7.48099e+06 1726.88
314051 7.48099e+06 1712.11
314582 7.48039e+06 1645.63
314051 7.48039e+06 1678.26
314582 7.48099e+06 1934.49
314051 7.48099e+06 1876.25
314582 7.48039e+06 1833.85
314051 7.48039e+06 1880.73
315114 7.48099e+06 1709.66
314582 7.48099e+06 1726.88
315114 7.48039e+06 1721.5
314582 7.48039e+06 1645.63
315114 7.48099e+06 1900.24
314582 7.48099e+06 1934.49
315114 7.48039e+06 1886.11
314582 7.48039e+06 1833.85
315646 7.48099e+06 1756.64
315114 7.48099e+06 1709.66
315646 7.48039e+06 1811.31
315114 7.48039e+06 1721.5
315646 7.48099e+06 1934.39
315114 7.48099e+06 1900.24
315646 7.48039e+06 1988.48
315114 7.48039e+06 1886.11
316178 7.48099e+06 1790.03
315646 7.48099e+06 1756.64
316178 7.48039e+06 1865.22
315646 7.48039e+06 1811.31
316178 7.48099e+06 1968.06
315646 7.48099e+06 1934.39
316178 7.48039e+06 2047.1
315646 7.48039e+06 1988.48
314582 7.48039e+06 1645.63
314051 7.48039e+06 1678.26
314582 7.47979e+06 1665.93
314582 7.47979e+06 1665.93
314582 7.48039e+06 1833.85
314051 7.48039e+06 1880.73
314582 7.47979e+06 1854.12
314582 7.47979e+06 1854.12
315114 7.48039e+06 1721.5
314582 7.48039e+06 1645.63
315114 7.47979e+06 1764.09
314582 7.47979e+06 1665.93
315114 7.48039e+06 1886.11
314582 7.48039e+06 1833.85
315114 7.47979e+06 1939.58
314582 7.47979e+06 1854.12
315646 7.48039e+06 1811.31
315114 7.48039e+06 1721.5
315646 7.47979e+06 1785.57
315114 7.47979e+06 1764.09
315646 7.48039e+06 1988.48
315114 7.48039e+06 1886.11
315646 7.47979e+06 1958.96
315114 7.47979e+06 1939.58
316178 7.48039e+06 1865.22
315646 7.48039e+06 1811.31
316178 7.47979e+06 1802.99
315646 7.47979e+06 1785.57
316178 7.48039e+06 2047.1
315646 7.48039e+06 1988.48
316178 7.47979e+06 1993.3
315646 7.47979e+06 1958.96
315114 7.47979e+06 1764.09
314582 7.47979e+06 1665.93
315114 7.47919e+06 1754.26
315114 7.47919e+06 1754.26
315114 7.47979e+06 1939.58
314582 7.47979e+06 1854.12
315114 7.47919e+06 1906.83
315114 7.47919e+06 1906.83
315646 7.47979e+06 1785.57
315114 7.47979e+06 1764.09
315646 7.47919e+06 1835.41
315114 7.47919e+06 1754.26
315646 7.47979e+06 1958.96
315114 7.47979e+06 1939.58
315646 7.47919e+06 1950.6
315114 7.47919e+06 1906.83
316178 7.47979e+06 1802.99
315646 7.47979e+06 1785.57
316178 7.47919e+06 1862.28
315646 7.47919e+06 1835.41
316178 7.47979e+06 1993.3
315646 7.47979e+06 1958.96
316178 7.47919e+06 2006.1
315646 7.47919e+06 1950.6

CELLS 52 468
8 0 1 3 2 4 5 7 6
8 8 9 11 10 12 13 15 14
8 16 17 19 18 20 21 23 22
8 24 25 27 26 28 29 31 30
8 32 33 35 34 36 37 39 38
8 40 41 43 42 44 45 47 46
8 48 49 51 50 52 53 55 54
8 56 57 59 58 60 61 63 62
8 64 65 67 66 68 69 71 70
8 72 73 75 74 76 77 79 78
8 80 81 83 82 84 85 87 86
8 88 89 91 90 92 93 95 94
8 96 97 99 98 100 101 103 102
8 104 105 107 106 108 109 111 110
8 112 113 115 114 116 117 119 118
8 120 121 123 122 124 125 127 126
8 128 129 131 130 132 133 135 134
8 136 137 139 138 140 141 143 142
8 144 145 147 146 148 149 151 150
8 152 153 155 154 156 157 159 158
8 160 161 163 162 164 165 167 166
8 168 169 171 170 172 173 175 174
8 176 177 179 178 180 181 183 182
8 184 185 187 186 188 189 191 190
8 192 193 195 194 196 197 199 198
8 200 201 203 202 204 205 207 206
8 208 209 211 210 212 213 215 214
8 216 217 219 218 220 221 223 222
8 224 225 227 226 228 229 231 230
8 232 233 235 234 236 237 239 238
8 240 241 243 242 244 245 247 246
8 248 249 251 250 252 253 255 254
8 256 257 259 258 260 261 263 262
8 264 265 267 266 268 269 271 270
8 272 273 275 274 276 277 279 278
8 280 281 283 282 284 285 287 286
8 288 289 291 290 292 293 295 294
8 296 297 299 298 300 301 303 302
8 304 305 307 306 308 309 311 310
8 312 313 315 314 316 317 319 318
8 320 321 323 322 324 325 327 326
8 328 329 331 330 332 333 335 334
8 336 337 339 338 340 341 343 342
8 344 345 347 346 348 349 351 350
8 352 353 355 354 356 357 359 358
8 360 361 363 362 364 365 367 366
8 368 369 371 370 372 373 375 374
8 376 377 379 378 380 381 383 382
8 384 385 387 386 388 389 391 390
8 392 393 395 394 396 397 399 398
8 400 401 403 402 404 405 407 406
8 408 409 411 410 412 413 415 414

CELL_TYPES 52
12
12
12
12
12
12
12
12
12
12
12
12
12
12
12
12
12
12
12
12
12
12
12
12
12
12
12
12
12
12
12
12
12
12
12
12
12
12
12
12
12
12
12
12
12
12
12
12
12
12
12
12

POINT_DATA 416
SCALARS Sw float
LOOKUP_TABLE default
1.85382e-05 
1.85382e-05 
1.85382e-05 
1.85382e-05 
1.85382e-05 
1.85382e-05 
1.85382e-05 
1.85382e-05 
3.42885e-05 
3.42885e-05 
3.42885e-05 
3.42885e-05 
3.42885e-05 
3.42885e-05 
3.42885e-05 
3.42885e-05 
5.90599e-05 
5.90599e-05 
5.90599e-05 
5.90599e-05 
5.90599e-05 
5.90599e-05 
5.90599e-05 
5.90599e-05 
0.00011198 
0.00011198 
0.00011198 
0.00011198 
0.00011198 
0.00011198 
0.00011198 
0.00011198 
0.000225593 
0.000225593 
0.000225593 
0.000225593 
0.000225593 
0.000225593 
0.000225593 
0.000225593 
0.000516723 
0.000516723 
0.000516723 
0.000516723 
0.000516723 
0.000516723 
0.000516723 
0.000516723 
0.00168134 
0.00168134 
0.00168134 
0.00168134 
0.00168134 
0.00168134 
0.00168134 
0.00168134 
8.19291e-05 
8.19291e-05 
8.19291e-05 
8.19291e-05 
8.19291e-05 
8.19291e-05 
8.19291e-05 
8.19291e-05 
0.000205973 
0.000205973 
0.000205973 
0.000205973 
0.000205973 
0.000205973 
0.000205973 
0.000205973 
0.000572566 
0.000572566 
0.000572566 
0.000572566 
0.000572566 
0.000572566 
0.000572566 
0.000572566 
0.00132649 
0.00132649 
0.00132649 
0.00132649 
0.00132649 
0.00132649 
0.00132649 
0.00132649 
0.00279862 
0.00279862 
0.00279862 
0.00279862 
0.00279862 
0.00279862 
0.00279862 
0.00279862 
0.00507594 
0.00507594 
0.00507594 
0.00507594 
0.00507594 
0.00507594 
0.00507594 
0.00507594 
0.00842329 
0.00842329 
0.00842329 
0.00842329 
0.00842329 
0.00842329 
0.00842329 
0.00842329 
0.000120943 
0.000120943 
0.000120943 
0.000120943 
0.000120943 
0.000120943 
0.000120943 
0.000120943 
0.000781015 
0.000781015 
0.000781015 
0.000781015 
0.000781015 
0.000781015 
0.000781015 
0.000781015 
0.00266751 
0.00266751 
0.00266751 
0.00266751 
0.00266751 
0.00266751 
0.00266751 
0.00266751 
0.0071815 
0.0071815 
0.0071815 
0.0071815 
0.0071815 
0.0071815 
0.0071815 
0.0071815 
0.0172978 
0.0172978 
0.0172978 
0.0172978 
0.0172978 
0.0172978 
0.0172978 
0.0172978 
0.0300772 
0.0300772 
0.0300772 
0.0300772 
0.0300772 
0.0300772 
0.0300772 
0.0300772 
0.0498229 
0.0498229 
0.0498229 
0.0498229 
0.0498229 
0.0498229 
0.0498229 
0.0498229 
0.0620677 
0.0620677 
0.0620677 
0.0620677 
0.0620677 
0.0620677 
0.0620677 
0.0620677 
0.00041157 
0.00041157 
0.00041157 
0.00041157 
0.00041157 
0.00041157 
0.00041157 
0.00041157 
0.00248298 
0.00248298 
0.00248298 
0.00248298 
0.00248298 
0.00248298 
0.00248298 
0.00248298 
0.0101864 
0.0101864 
0.0101864 
0.0101864 
0.0101864 
0.0101864 
0.0101864 
0.0101864 
0.0301767 
0.0301767 
0.0301767 
0.0301767 
0.0301767 
0.0301767 
0.0301767 
0.0301767 
0.0702666 
0.0702666 
0.0702666 
0.0702666 
0.0702666 
0.0702666 
0.0702666 
0.0702666 
0.112383 
0.112383 
0.112383 
0.112383 
0.112383 
0.112383 
0.112383 
0.112383 
0.176579 
0.176579 
0.176579 
0.176579 
0.176579 
0.176579 
0.176579 
0.176579 
0.123836 
0.123836 
0.123836 
0.123836 
0.123836 
0.123836 
0.123836 
0.123836 
0.00164812 
0.00164812 
0.00164812 
0.00164812 
0.00164812 
0.00164812 
0.00164812 
0.00164812 
0.00868889 
0.00868889 
0.00868889 
0.00868889 
0.00868889 
0.00868889 
0.00868889 
0.00868889 
0.0336157 
0.0336157 
0.0336157 
0.0336157 
0.0336157 
0.0336157 
0.0336157 
0.0336157 
0.104096 
0.104096 
0.104096 
0.104096 
0.104096 
0.104096 
0.104096 
0.104096 
0.236864 
0.236864 
0.236864 
0.236864 
0.236864 
0.236864 
0.236864 
0.236864 
0.332118 
0.332118 
0.332118 
0.332118 
0.332118 
0.332118 
0.332118 
0.332118 
0.483372 
0.483372 
0.483372 
0.483372 
0.483372 
0.483372 
0.483372 
0.483372 
0.356458 
0.356458 
0.356458 
0.356458 
0.356458 
0.356458 
0.356458 
0.356458 
0.026495 
0.026495 
0.026495 
0.026495 
0.026495 
0.026495 
0.026495 
0.026495 
0.0758484 
0.0758484 
0.0758484 
0.0758484 
0.0758484 
0.0758484 
0.0758484 
0.0758484 
0.223963 
0.223963 
0.223963 
0.223963 
0.223963 
0.223963 
0.223963 
0.223963 
0.54361 
0.54361 
0.54361 
0.54361 
0.54361 
0.54361 
0.54361 
0.54361 
0.599304 
0.599304 
0.599304 
0.599304 
0.599304 
0.599304 
0.599304 
0.599304 
0.882095 
0.882095 
0.882095 
0.882095 
0.882095 
0.882095 
0.882095 
0.882095 
0.654089 
0.654089 
0.654089 
0.654089 
0.654089 
0.654089 
0.654089 
0.654089 
0.837321 
0.837321 
0.837321 
0.837321 
0.837321 
0.837321 
0.837321 
0.837321 
0.833322 
0.833322 
0.833322 
0.833322 
0.833322 
0.833322 
0.833322 
0.833322 
1.17128 
1.17128 
1.17128 
1.17128 
1.17128 
1.17128 
1.17128 
1.17128 
0.841462 
0.841462 
0.841462 
0.841462 
0.841462 
0.841462 
0.841462 
0.841462 
0.605428 
0.605428 
0.605428 
0.605428 
0.605428 
0.605428 
0.605428 
0.605428 
1.31768 
1.31768 
1.31768 
1.31768 
1.31768 
1.31768 
1.31768 
1.31768 
0.845652 
0.845652 
0.845652 
0.845652 
0.845652 
0.845652 
0.845652 
0.845652 

SCALARS So float
LOOKUP_TABLE default
0.999981 
0.999981 
0.999981 
0.999981 
0.999981 
0.999981 
0.999981 
0.999981 
0.999966 
0.999966 
0.999966 
0.999966 
0.999966 
0.999966 
0.999966 
0.999966 
0.999941 
0.999941 
0.999941 
0.999941 
0.999941 
0.999941 
0.999941 
0.999941 
0.999888 
0.999888 
0.999888 
0.999888 
0.999888 
0.999888 
0.999888 
0.999888 
0.999774 
0.999774 
0.999774 
0.999774 
0.999774 
0.999774 
0.999774 
0.999774 
0.999483 
0.999483 
0.999483 
0.999483 
0.999483 
0.999483 
0.999483 
0.999483 
0.998319 
0.998319 
0.998319 
0.998319 
0.998319 
0.998319 
0.998319 
0.998319 
0.999918 
0.999918 
0.999918 
0.999918 
0.999918 
0.999918 
0.999918 
0.999918 
0.999794 
0.999794 
0.999794 
0.999794 
0.999794 
0.999794 
0.999794 
0.999794 
0.999427 
0.999427 
0.999427 
0.999427 
0.999427 
0.999427 
0.999427 
0.999427 
0.998674 
0.998674 
0.998674 
0.998674 
0.998674 
0.998674 
0.998674 
0.998674 
0.997201 
0.997201 
0.997201 
0.997201 
0.997201 
0.997201 
0.997201 
0.997201 
0.994924 
0.994924 
0.994924 
0.994924 
0.994924 
0.994924 
0.994924 
0.994924 
0.991577 
0.991577 
0.991577 
0.991577 
0.991577 
0.991577 
0.991577 
0.991577 
0.999879 
0.999879 
0.999879 
0.999879 
0.999879 
0.999879 
0.999879 
0.999879 
0.999219 
0.999219 
0.999219 
0.999219 
0.999219 
0.999219 
0.999219 
0.999219 
0.997332 
0.997332 
0.997332 
0.997332 
0.997332 
0.997332 
0.997332 
0.997332 
0.992818 
0.992818 
0.992818 
0.992818 
0.992818 
0.992818 
0.992818 
0.992818 
0.982702 
0.982702 
0.982702 
0.982702 
0.982702 
0.982702 
0.982702 
0.982702 
0.969923 
0.969923 
0.969923 
0.969923 
0.969923 
0.969923 
0.969923 
0.969923 
0.950177 
0.950177 
0.950177 
0.950177 
0.950177 
0.950177 
0.950177 
0.950177 
0.937932 
0.937932 
0.937932 
0.937932 
0.937932 
0.937932 
0.937932 
0.937932 
0.999588 
0.999588 
0.999588 
0.999588 
0.999588 
0.999588 
0.999588 
0.999588 
0.997517 
0.997517 
0.997517 
0.997517 
0.997517 
0.997517 
0.997517 
0.997517 
0.989814 
0.989814 
0.989814 
0.989814 
0.989814 
0.989814 
0.989814 
0.989814 
0.969823 
0.969823 
0.969823 
0.969823 
0.969823 
0.969823 
0.969823 
0.969823 
0.929733 
0.929733 
0.929733 
0.929733 
0.929733 
0.929733 
0.929733 
0.929733 
0.887617 
0.887617 
0.887617 
0.887617 
0.887617 
0.887617 
0.887617 
0.887617 
0.823421 
0.823421 
0.823421 
0.823421 
0.823421 
0.823421 
0.823421 
0.823421 
0.876164 
0.876164 
0.876164 
0.876164 
0.876164 
0.876164 
0.876164 
0.876164 
0.998352 
0.998352 
0.998352 
0.998352 
0.998352 
0.998352 
0.998352 
0.998352 
0.991311 
0.991311 
0.991311 
0.991311 
0.991311 
0.991311 
0.991311 
0.991311 
0.966384 
0.966384 
0.966384 
0.966384 
0.966384 
0.966384 
0.966384 
0.966384 
0.895904 
0.895904 
0.895904 
0.895904 
0.895904 
0.895904 
0.895904 
0.895904 
0.763136 
0.763136 
0.763136 
0.763136 
0.763136 
0.763136 
0.763136 
0.763136 
0.667882 
0.667882 
0.667882 
0.667882 
0.667882 
0.667882 
0.667882 
0.667882 
0.516628 
0.516628 
0.516628 
0.516628 
0.516628 
0.516628 
0.516628 
0.516628 
0.643542 
0.643542 
0.643542 
0.643542 
0.643542 
0.643542 
0.643542 
0.643542 
0.973505 
0.973505 
0.973505 
0.973505 
0.973505 
0.973505 
0.973505 
0.973505 
0.924152 
0.924152 
0.924152 
0.924152 
0.924152 
0.924152 
0.924152 
0.924152 
0.776037 
0.776037 
0.776037 
0.776037 
0.776037 
0.776037 
0.776037 
0.776037 
0.45639 
0.45639 
0.45639 
0.45639 
0.45639 
0.45639 
0.45639 
0.45639 
0.400696 
0.400696 
0.400696 
0.400696 
0.400696 
0.400696 
0.400696 
0.400696 
0.117905 
0.117905 
0.117905 
0.117905 
0.117905 
0.117905 
0.117905 
0.117905 
0.345911 
0.345911 
0.345911 
0.345911 
0.345911 
0.345911 
0.345911 
0.345911 
0.162679 
0.162679 
0.162679 
0.162679 
0.162679 
0.162679 
0.162679 
0.162679 
0.166678 
0.166678 
0.166678 
0.166678 
0.166678 
0.166678 
0.166678 
0.166678 
-0.171285 
-0.171285 
-0.171285 
-0.171285 
-0.171285 
-0.171285 
-0.171285 
-0.171285 
0.158538 
0.158538 
0.158538 
0.158538 
0.158538 
0.158538 
0.158538 
0.158538 
0.394572 
0.394572 
0.394572 
0.394572 
0.394572 
0.394572 
0.394572 
0.394572 
-0.317685 
-0.317685 
-0.317685 
-0.317685 
-0.317685 
-0.317685 
-0.317685 
-0.317685 
0.154348 
0.154348 
0.154348 
0.154348 
0.154348 
0.154348 
0.154348 
0.154348 

