# vtk DataFile Version 3.0
Arquivo gerado por PZ
ASCII

DATASET UNSTRUCTURED_GRID
POINTS 200 float
0 0 0
0 10 0
2 0 0
2 10 0
2 0 0
2 10 0
4 0 0
4 10 0
4 0 0
4 10 0
6 0 0
6 10 0
6 0 0
6 10 0
8 0 0
8 10 0
8 0 0
8 10 0
10 0 0
10 10 0
10 0 0
10 10 0
12 0 0
12 10 0
12 0 0
12 10 0
14 0 0
14 10 0
14 0 0
14 10 0
16 0 0
16 10 0
16 0 0
16 10 0
18 0 0
18 10 0
18 0 0
18 10 0
20 0 0
20 10 0
20 0 0
20 10 0
22 0 0
22 10 0
22 0 0
22 10 0
24 0 0
24 10 0
24 0 0
24 10 0
26 0 0
26 10 0
26 0 0
26 10 0
28 0 0
28 10 0
28 0 0
28 10 0
30 0 0
30 10 0
30 0 0
30 10 0
32 0 0
32 10 0
32 0 0
32 10 0
34 0 0
34 10 0
34 0 0
34 10 0
36 0 0
36 10 0
36 0 0
36 10 0
38 0 0
38 10 0
38 0 0
38 10 0
40 0 0
40 10 0
40 0 0
40 10 0
42 0 0
42 10 0
42 0 0
42 10 0
44 0 0
44 10 0
44 0 0
44 10 0
46 0 0
46 10 0
46 0 0
46 10 0
48 0 0
48 10 0
48 0 0
48 10 0
50 0 0
50 10 0
50 0 0
50 10 0
52 0 0
52 10 0
52 0 0
52 10 0
54 0 0
54 10 0
54 0 0
54 10 0
56 0 0
56 10 0
56 0 0
56 10 0
58 0 0
58 10 0
58 0 0
58 10 0
60 0 0
60 10 0
60 0 0
60 10 0
62 0 0
62 10 0
62 0 0
62 10 0
64 0 0
64 10 0
64 0 0
64 10 0
66 0 0
66 10 0
66 0 0
66 10 0
68 0 0
68 10 0
68 0 0
68 10 0
70 0 0
70 10 0
70 0 0
70 10 0
72 0 0
72 10 0
72 0 0
72 10 0
74 0 0
74 10 0
74 0 0
74 10 0
76 0 0
76 10 0
76 0 0
76 10 0
78 0 0
78 10 0
78 0 0
78 10 0
80 0 0
80 10 0
80 0 0
80 10 0
82 0 0
82 10 0
82 0 0
82 10 0
84 0 0
84 10 0
84 0 0
84 10 0
86 0 0
86 10 0
86 0 0
86 10 0
88 0 0
88 10 0
88 0 0
88 10 0
90 0 0
90 10 0
90 0 0
90 10 0
92 0 0
92 10 0
92 0 0
92 10 0
94 0 0
94 10 0
94 0 0
94 10 0
96 0 0
96 10 0
96 0 0
96 10 0
98 0 0
98 10 0
98 0 0
98 10 0
100 0 0
100 10 0

CELLS 50 250
4 0 2 3 1
4 4 6 7 5
4 8 10 11 9
4 12 14 15 13
4 16 18 19 17
4 20 22 23 21
4 24 26 27 25
4 28 30 31 29
4 32 34 35 33
4 36 38 39 37
4 40 42 43 41
4 44 46 47 45
4 48 50 51 49
4 52 54 55 53
4 56 58 59 57
4 60 62 63 61
4 64 66 67 65
4 68 70 71 69
4 72 74 75 73
4 76 78 79 77
4 80 82 83 81
4 84 86 87 85
4 88 90 91 89
4 92 94 95 93
4 96 98 99 97
4 100 102 103 101
4 104 106 107 105
4 108 110 111 109
4 112 114 115 113
4 116 118 119 117
4 120 122 123 121
4 124 126 127 125
4 128 130 131 129
4 132 134 135 133
4 136 138 139 137
4 140 142 143 141
4 144 146 147 145
4 148 150 151 149
4 152 154 155 153
4 156 158 159 157
4 160 162 163 161
4 164 166 167 165
4 168 170 171 169
4 172 174 175 173
4 176 178 179 177
4 180 182 183 181
4 184 186 187 185
4 188 190 191 189
4 192 194 195 193
4 196 198 199 197

CELL_TYPES 50
9
9
9
9
9
9
9
9
9
9
9
9
9
9
9
9
9
9
9
9
9
9
9
9
9
9
9
9
9
9
9
9
9
9
9
9
9
9
9
9
9
9
9
9
9
9
9
9
9
9

POINT_DATA 200
SCALARS Sw float
LOOKUP_TABLE default
1.66416e-05 
1.66416e-05 
1.66416e-05 
1.66416e-05 
2.54243e-05 
2.54243e-05 
2.54243e-05 
2.54243e-05 
3.86659e-05 
3.86659e-05 
3.86659e-05 
3.86659e-05 
5.85282e-05 
5.85282e-05 
5.85282e-05 
5.85282e-05 
8.81641e-05 
8.81641e-05 
8.81641e-05 
8.81641e-05 
0.00013214 
0.00013214 
0.00013214 
0.00013214 
0.000197022 
0.000197022 
0.000197022 
0.000197022 
0.000292183 
0.000292183 
0.000292183 
0.000292183 
0.000430892 
0.000430892 
0.000430892 
0.000430892 
0.00063178 
0.00063178 
0.00063178 
0.00063178 
0.000920778 
0.000920778 
0.000920778 
0.000920778 
0.00133363 
0.00133363 
0.00133363 
0.00133363 
0.00191913 
0.00191913 
0.00191913 
0.00191913 
0.00274317 
0.00274317 
0.00274317 
0.00274317 
0.00389372 
0.00389372 
0.00389372 
0.00389372 
0.00548678 
0.00548678 
0.00548678 
0.00548678 
0.00767334 
0.00767334 
0.00767334 
0.00767334 
0.0106471 
0.0106471 
0.0106471 
0.0106471 
0.0146525 
0.0146525 
0.0146525 
0.0146525 
0.019993 
0.019993 
0.019993 
0.019993 
0.027038 
0.027038 
0.027038 
0.027038 
0.0362271 
0.0362271 
0.0362271 
0.0362271 
0.0480709 
0.0480709 
0.0480709 
0.0480709 
0.0631447 
0.0631447 
0.0631447 
0.0631447 
0.0820747 
0.0820747 
0.0820747 
0.0820747 
0.105512 
0.105512 
0.105512 
0.105512 
0.134094 
0.134094 
0.134094 
0.134094 
0.168392 
0.168392 
0.168392 
0.168392 
0.208846 
0.208846 
0.208846 
0.208846 
0.255688 
0.255688 
0.255688 
0.255688 
0.30886 
0.30886 
0.30886 
0.30886 
0.367939 
0.367939 
0.367939 
0.367939 
0.432083 
0.432083 
0.432083 
0.432083 
0.5 
0.5 
0.5 
0.5 
0.569975 
0.569975 
0.569975 
0.569975 
0.63995 
0.63995 
0.63995 
0.63995 
0.707668 
0.707668 
0.707668 
0.707668 
0.770871 
0.770871 
0.770871 
0.770871 
0.827536 
0.827536 
0.827536 
0.827536 
0.876106 
0.876106 
0.876106 
0.876106 
0.915681 
0.915681 
0.915681 
0.915681 
0.946124 
0.946124 
0.946124 
0.946124 
0.968043 
0.968043 
0.968043 
0.968043 
0.982655 
0.982655 
0.982655 
0.982655 
0.99155 
0.99155 
0.99155 
0.99155 
0.996401 
0.996401 
0.996401 
0.996401 
0.998712 
0.998712 
0.998712 
0.998712 
0.999636 
0.999636 
0.999636 
0.999636 
0.999928 
0.999928 
0.999928 
0.999928 
0.999992 
0.999992 
0.999992 
0.999992 

SCALARS So float
LOOKUP_TABLE default
0.999983 
0.999983 
0.999983 
0.999983 
0.999975 
0.999975 
0.999975 
0.999975 
0.999961 
0.999961 
0.999961 
0.999961 
0.999941 
0.999941 
0.999941 
0.999941 
0.999912 
0.999912 
0.999912 
0.999912 
0.999868 
0.999868 
0.999868 
0.999868 
0.999803 
0.999803 
0.999803 
0.999803 
0.999708 
0.999708 
0.999708 
0.999708 
0.999569 
0.999569 
0.999569 
0.999569 
0.999368 
0.999368 
0.999368 
0.999368 
0.999079 
0.999079 
0.999079 
0.999079 
0.998666 
0.998666 
0.998666 
0.998666 
0.998081 
0.998081 
0.998081 
0.998081 
0.997257 
0.997257 
0.997257 
0.997257 
0.996106 
0.996106 
0.996106 
0.996106 
0.994513 
0.994513 
0.994513 
0.994513 
0.992327 
0.992327 
0.992327 
0.992327 
0.989353 
0.989353 
0.989353 
0.989353 
0.985348 
0.985348 
0.985348 
0.985348 
0.980007 
0.980007 
0.980007 
0.980007 
0.972962 
0.972962 
0.972962 
0.972962 
0.963773 
0.963773 
0.963773 
0.963773 
0.951929 
0.951929 
0.951929 
0.951929 
0.936855 
0.936855 
0.936855 
0.936855 
0.917925 
0.917925 
0.917925 
0.917925 
0.894488 
0.894488 
0.894488 
0.894488 
0.865906 
0.865906 
0.865906 
0.865906 
0.831608 
0.831608 
0.831608 
0.831608 
0.791154 
0.791154 
0.791154 
0.791154 
0.744312 
0.744312 
0.744312 
0.744312 
0.69114 
0.69114 
0.69114 
0.69114 
0.632061 
0.632061 
0.632061 
0.632061 
0.567917 
0.567917 
0.567917 
0.567917 
0.5 
0.5 
0.5 
0.5 
0.430025 
0.430025 
0.430025 
0.430025 
0.36005 
0.36005 
0.36005 
0.36005 
0.292332 
0.292332 
0.292332 
0.292332 
0.229129 
0.229129 
0.229129 
0.229129 
0.172464 
0.172464 
0.172464 
0.172464 
0.123894 
0.123894 
0.123894 
0.123894 
0.0843188 
0.0843188 
0.0843188 
0.0843188 
0.0538761 
0.0538761 
0.0538761 
0.0538761 
0.0319573 
0.0319573 
0.0319573 
0.0319573 
0.0173448 
0.0173448 
0.0173448 
0.0173448 
0.00845027 
0.00845027 
0.00845027 
0.00845027 
0.00359869 
0.00359869 
0.00359869 
0.00359869 
0.00128841 
0.00128841 
0.00128841 
0.00128841 
0.000364304 
0.000364304 
0.000364304 
0.000364304 
7.24792e-05 
7.24792e-05 
7.24792e-05 
7.24792e-05 
7.62939e-06 
7.62939e-06 
7.62939e-06 
7.62939e-06 

