# vtk DataFile Version 3.0
Arquivo gerado por PZ
ASCII

DATASET UNSTRUCTURED_GRID
POINTS 200 float
0 0 0
0 10 0
2 0 0
2 10 0
2 0 0
2 10 0
4 0 0
4 10 0
4 0 0
4 10 0
6 0 0
6 10 0
6 0 0
6 10 0
8 0 0
8 10 0
8 0 0
8 10 0
10 0 0
10 10 0
10 0 0
10 10 0
12 0 0
12 10 0
12 0 0
12 10 0
14 0 0
14 10 0
14 0 0
14 10 0
16 0 0
16 10 0
16 0 0
16 10 0
18 0 0
18 10 0
18 0 0
18 10 0
20 0 0
20 10 0
20 0 0
20 10 0
22 0 0
22 10 0
22 0 0
22 10 0
24 0 0
24 10 0
24 0 0
24 10 0
26 0 0
26 10 0
26 0 0
26 10 0
28 0 0
28 10 0
28 0 0
28 10 0
30 0 0
30 10 0
30 0 0
30 10 0
32 0 0
32 10 0
32 0 0
32 10 0
34 0 0
34 10 0
34 0 0
34 10 0
36 0 0
36 10 0
36 0 0
36 10 0
38 0 0
38 10 0
38 0 0
38 10 0
40 0 0
40 10 0
40 0 0
40 10 0
42 0 0
42 10 0
42 0 0
42 10 0
44 0 0
44 10 0
44 0 0
44 10 0
46 0 0
46 10 0
46 0 0
46 10 0
48 0 0
48 10 0
48 0 0
48 10 0
50 0 0
50 10 0
50 0 0
50 10 0
52 0 0
52 10 0
52 0 0
52 10 0
54 0 0
54 10 0
54 0 0
54 10 0
56 0 0
56 10 0
56 0 0
56 10 0
58 0 0
58 10 0
58 0 0
58 10 0
60 0 0
60 10 0
60 0 0
60 10 0
62 0 0
62 10 0
62 0 0
62 10 0
64 0 0
64 10 0
64 0 0
64 10 0
66 0 0
66 10 0
66 0 0
66 10 0
68 0 0
68 10 0
68 0 0
68 10 0
70 0 0
70 10 0
70 0 0
70 10 0
72 0 0
72 10 0
72 0 0
72 10 0
74 0 0
74 10 0
74 0 0
74 10 0
76 0 0
76 10 0
76 0 0
76 10 0
78 0 0
78 10 0
78 0 0
78 10 0
80 0 0
80 10 0
80 0 0
80 10 0
82 0 0
82 10 0
82 0 0
82 10 0
84 0 0
84 10 0
84 0 0
84 10 0
86 0 0
86 10 0
86 0 0
86 10 0
88 0 0
88 10 0
88 0 0
88 10 0
90 0 0
90 10 0
90 0 0
90 10 0
92 0 0
92 10 0
92 0 0
92 10 0
94 0 0
94 10 0
94 0 0
94 10 0
96 0 0
96 10 0
96 0 0
96 10 0
98 0 0
98 10 0
98 0 0
98 10 0
100 0 0
100 10 0

CELLS 50 250
4 0 2 3 1
4 4 6 7 5
4 8 10 11 9
4 12 14 15 13
4 16 18 19 17
4 20 22 23 21
4 24 26 27 25
4 28 30 31 29
4 32 34 35 33
4 36 38 39 37
4 40 42 43 41
4 44 46 47 45
4 48 50 51 49
4 52 54 55 53
4 56 58 59 57
4 60 62 63 61
4 64 66 67 65
4 68 70 71 69
4 72 74 75 73
4 76 78 79 77
4 80 82 83 81
4 84 86 87 85
4 88 90 91 89
4 92 94 95 93
4 96 98 99 97
4 100 102 103 101
4 104 106 107 105
4 108 110 111 109
4 112 114 115 113
4 116 118 119 117
4 120 122 123 121
4 124 126 127 125
4 128 130 131 129
4 132 134 135 133
4 136 138 139 137
4 140 142 143 141
4 144 146 147 145
4 148 150 151 149
4 152 154 155 153
4 156 158 159 157
4 160 162 163 161
4 164 166 167 165
4 168 170 171 169
4 172 174 175 173
4 176 178 179 177
4 180 182 183 181
4 184 186 187 185
4 188 190 191 189
4 192 194 195 193
4 196 198 199 197

CELL_TYPES 50
9
9
9
9
9
9
9
9
9
9
9
9
9
9
9
9
9
9
9
9
9
9
9
9
9
9
9
9
9
9
9
9
9
9
9
9
9
9
9
9
9
9
9
9
9
9
9
9
9
9

POINT_DATA 200
SCALARS Sw float
LOOKUP_TABLE default
0.000646793 
0.000646793 
0.000646793 
0.000646793 
0.000910203 
0.000910203 
0.000910203 
0.000910203 
0.00127378 
0.00127378 
0.00127378 
0.00127378 
0.00177241 
0.00177241 
0.00177241 
0.00177241 
0.00245169 
0.00245169 
0.00245169 
0.00245169 
0.00337072 
0.00337072 
0.00337072 
0.00337072 
0.00460525 
0.00460525 
0.00460525 
0.00460525 
0.00625127 
0.00625127 
0.00625127 
0.00625127 
0.0084291 
0.0084291 
0.0084291 
0.0084291 
0.0112875 
0.0112875 
0.0112875 
0.0112875 
0.0150079 
0.0150079 
0.0150079 
0.0150079 
0.0198085 
0.0198085 
0.0198085 
0.0198085 
0.0259469 
0.0259469 
0.0259469 
0.0259469 
0.0337223 
0.0337223 
0.0337223 
0.0337223 
0.0434745 
0.0434745 
0.0434745 
0.0434745 
0.0555806 
0.0555806 
0.0555806 
0.0555806 
0.0704477 
0.0704477 
0.0704477 
0.0704477 
0.0885007 
0.0885007 
0.0885007 
0.0885007 
0.110164 
0.110164 
0.110164 
0.110164 
0.13584 
0.13584 
0.13584 
0.13584 
0.165875 
0.165875 
0.165875 
0.165875 
0.200531 
0.200531 
0.200531 
0.200531 
0.239944 
0.239944 
0.239944 
0.239944 
0.284086 
0.284086 
0.284086 
0.284086 
0.332733 
0.332733 
0.332733 
0.332733 
0.385433 
0.385433 
0.385433 
0.385433 
0.441498 
0.441498 
0.441498 
0.441498 
0.5 
0.5 
0.5 
0.5 
0.559802 
0.559802 
0.559802 
0.559802 
0.619604 
0.619604 
0.619604 
0.619604 
0.678016 
0.678016 
0.678016 
0.678016 
0.733645 
0.733645 
0.733645 
0.733645 
0.785205 
0.785205 
0.785205 
0.785205 
0.831608 
0.831608 
0.831608 
0.831608 
0.872062 
0.872062 
0.872062 
0.872062 
0.906129 
0.906129 
0.906129 
0.906129 
0.933751 
0.933751 
0.933751 
0.933751 
0.955234 
0.955234 
0.955234 
0.955234 
0.971194 
0.971194 
0.971194 
0.971194 
0.982459 
0.982459 
0.982459 
0.982459 
0.989969 
0.989969 
0.989969 
0.989969 
0.994663 
0.994663 
0.994663 
0.994663 
0.997389 
0.997389 
0.997389 
0.997389 
0.998842 
0.998842 
0.998842 
0.998842 
0.999544 
0.999544 
0.999544 
0.999544 
0.999845 
0.999845 
0.999845 
0.999845 
0.999956 
0.999956 
0.999956 
0.999956 
0.99999 
0.99999 
0.99999 
0.99999 
0.999999 
0.999999 
0.999999 
0.999999 
1 
1 
1 
1 

SCALARS So float
LOOKUP_TABLE default
0.999353 
0.999353 
0.999353 
0.999353 
0.99909 
0.99909 
0.99909 
0.99909 
0.998726 
0.998726 
0.998726 
0.998726 
0.998228 
0.998228 
0.998228 
0.998228 
0.997548 
0.997548 
0.997548 
0.997548 
0.996629 
0.996629 
0.996629 
0.996629 
0.995395 
0.995395 
0.995395 
0.995395 
0.993749 
0.993749 
0.993749 
0.993749 
0.991571 
0.991571 
0.991571 
0.991571 
0.988713 
0.988713 
0.988713 
0.988713 
0.984992 
0.984992 
0.984992 
0.984992 
0.980191 
0.980191 
0.980191 
0.980191 
0.974053 
0.974053 
0.974053 
0.974053 
0.966278 
0.966278 
0.966278 
0.966278 
0.956526 
0.956526 
0.956526 
0.956526 
0.944419 
0.944419 
0.944419 
0.944419 
0.929552 
0.929552 
0.929552 
0.929552 
0.911499 
0.911499 
0.911499 
0.911499 
0.889836 
0.889836 
0.889836 
0.889836 
0.86416 
0.86416 
0.86416 
0.86416 
0.834125 
0.834125 
0.834125 
0.834125 
0.799469 
0.799469 
0.799469 
0.799469 
0.760056 
0.760056 
0.760056 
0.760056 
0.715914 
0.715914 
0.715914 
0.715914 
0.667267 
0.667267 
0.667267 
0.667267 
0.614567 
0.614567 
0.614567 
0.614567 
0.558502 
0.558502 
0.558502 
0.558502 
0.5 
0.5 
0.5 
0.5 
0.440198 
0.440198 
0.440198 
0.440198 
0.380396 
0.380396 
0.380396 
0.380396 
0.321984 
0.321984 
0.321984 
0.321984 
0.266355 
0.266355 
0.266355 
0.266355 
0.214795 
0.214795 
0.214795 
0.214795 
0.168392 
0.168392 
0.168392 
0.168392 
0.127938 
0.127938 
0.127938 
0.127938 
0.0938708 
0.0938708 
0.0938708 
0.0938708 
0.0662491 
0.0662491 
0.0662491 
0.0662491 
0.0447655 
0.0447655 
0.0447655 
0.0447655 
0.0288063 
0.0288063 
0.0288063 
0.0288063 
0.017541 
0.017541 
0.017541 
0.017541 
0.0100308 
0.0100308 
0.0100308 
0.0100308 
0.00533692 
0.00533692 
0.00533692 
0.00533692 
0.00261144 
0.00261144 
0.00261144 
0.00261144 
0.00115785 
0.00115785 
0.00115785 
0.00115785 
0.000456117 
0.000456117 
0.000456117 
0.000456117 
0.000155374 
0.000155374 
0.000155374 
0.000155374 
4.39882e-05 
4.39882e-05 
4.39882e-05 
4.39882e-05 
9.71556e-06 
9.71556e-06 
9.71556e-06 
9.71556e-06 
1.49012e-06 
1.49012e-06 
1.49012e-06 
1.49012e-06 
1.19209e-07 
1.19209e-07 
1.19209e-07 
1.19209e-07 

