# vtk DataFile Version 3.0
Arquivo gerado por PZ
ASCII

DATASET UNSTRUCTURED_GRID
POINTS 200 float
0 0 0
0 10 0
2 0 0
2 10 0
2 0 0
2 10 0
4 0 0
4 10 0
4 0 0
4 10 0
6 0 0
6 10 0
6 0 0
6 10 0
8 0 0
8 10 0
8 0 0
8 10 0
10 0 0
10 10 0
10 0 0
10 10 0
12 0 0
12 10 0
12 0 0
12 10 0
14 0 0
14 10 0
14 0 0
14 10 0
16 0 0
16 10 0
16 0 0
16 10 0
18 0 0
18 10 0
18 0 0
18 10 0
20 0 0
20 10 0
20 0 0
20 10 0
22 0 0
22 10 0
22 0 0
22 10 0
24 0 0
24 10 0
24 0 0
24 10 0
26 0 0
26 10 0
26 0 0
26 10 0
28 0 0
28 10 0
28 0 0
28 10 0
30 0 0
30 10 0
30 0 0
30 10 0
32 0 0
32 10 0
32 0 0
32 10 0
34 0 0
34 10 0
34 0 0
34 10 0
36 0 0
36 10 0
36 0 0
36 10 0
38 0 0
38 10 0
38 0 0
38 10 0
40 0 0
40 10 0
40 0 0
40 10 0
42 0 0
42 10 0
42 0 0
42 10 0
44 0 0
44 10 0
44 0 0
44 10 0
46 0 0
46 10 0
46 0 0
46 10 0
48 0 0
48 10 0
48 0 0
48 10 0
50 0 0
50 10 0
50 0 0
50 10 0
52 0 0
52 10 0
52 0 0
52 10 0
54 0 0
54 10 0
54 0 0
54 10 0
56 0 0
56 10 0
56 0 0
56 10 0
58 0 0
58 10 0
58 0 0
58 10 0
60 0 0
60 10 0
60 0 0
60 10 0
62 0 0
62 10 0
62 0 0
62 10 0
64 0 0
64 10 0
64 0 0
64 10 0
66 0 0
66 10 0
66 0 0
66 10 0
68 0 0
68 10 0
68 0 0
68 10 0
70 0 0
70 10 0
70 0 0
70 10 0
72 0 0
72 10 0
72 0 0
72 10 0
74 0 0
74 10 0
74 0 0
74 10 0
76 0 0
76 10 0
76 0 0
76 10 0
78 0 0
78 10 0
78 0 0
78 10 0
80 0 0
80 10 0
80 0 0
80 10 0
82 0 0
82 10 0
82 0 0
82 10 0
84 0 0
84 10 0
84 0 0
84 10 0
86 0 0
86 10 0
86 0 0
86 10 0
88 0 0
88 10 0
88 0 0
88 10 0
90 0 0
90 10 0
90 0 0
90 10 0
92 0 0
92 10 0
92 0 0
92 10 0
94 0 0
94 10 0
94 0 0
94 10 0
96 0 0
96 10 0
96 0 0
96 10 0
98 0 0
98 10 0
98 0 0
98 10 0
100 0 0
100 10 0

CELLS 50 250
4 0 2 3 1
4 4 6 7 5
4 8 10 11 9
4 12 14 15 13
4 16 18 19 17
4 20 22 23 21
4 24 26 27 25
4 28 30 31 29
4 32 34 35 33
4 36 38 39 37
4 40 42 43 41
4 44 46 47 45
4 48 50 51 49
4 52 54 55 53
4 56 58 59 57
4 60 62 63 61
4 64 66 67 65
4 68 70 71 69
4 72 74 75 73
4 76 78 79 77
4 80 82 83 81
4 84 86 87 85
4 88 90 91 89
4 92 94 95 93
4 96 98 99 97
4 100 102 103 101
4 104 106 107 105
4 108 110 111 109
4 112 114 115 113
4 116 118 119 117
4 120 122 123 121
4 124 126 127 125
4 128 130 131 129
4 132 134 135 133
4 136 138 139 137
4 140 142 143 141
4 144 146 147 145
4 148 150 151 149
4 152 154 155 153
4 156 158 159 157
4 160 162 163 161
4 164 166 167 165
4 168 170 171 169
4 172 174 175 173
4 176 178 179 177
4 180 182 183 181
4 184 186 187 185
4 188 190 191 189
4 192 194 195 193
4 196 198 199 197

CELL_TYPES 50
9
9
9
9
9
9
9
9
9
9
9
9
9
9
9
9
9
9
9
9
9
9
9
9
9
9
9
9
9
9
9
9
9
9
9
9
9
9
9
9
9
9
9
9
9
9
9
9
9
9

POINT_DATA 200
SCALARS Sw float
LOOKUP_TABLE default
0.000383383 
0.000383383 
0.000383383 
0.000383383 
0.000546623 
0.000546623 
0.000546623 
0.000546623 
0.000775159 
0.000775159 
0.000775159 
0.000775159 
0.00109312 
0.00109312 
0.00109312 
0.00109312 
0.00153266 
0.00153266 
0.00153266 
0.00153266 
0.0021362 
0.0021362 
0.0021362 
0.0021362 
0.00295922 
0.00295922 
0.00295922 
0.00295922 
0.00407345 
0.00407345 
0.00407345 
0.00407345 
0.0055707 
0.0055707 
0.0055707 
0.0055707 
0.00756704 
0.00756704 
0.00756704 
0.00756704 
0.0102074 
0.0102074 
0.0102074 
0.0102074 
0.0136701 
0.0136701 
0.0136701 
0.0136701 
0.0181716 
0.0181716 
0.0181716 
0.0181716 
0.0239702 
0.0239702 
0.0239702 
0.0239702 
0.0313683 
0.0313683 
0.0313683 
0.0313683 
0.0407134 
0.0407134 
0.0407134 
0.0407134 
0.0523947 
0.0523947 
0.0523947 
0.0523947 
0.0668371 
0.0668371 
0.0668371 
0.0668371 
0.0844889 
0.0844889 
0.0844889 
0.0844889 
0.105804 
0.105804 
0.105804 
0.105804 
0.131219 
0.131219 
0.131219 
0.131219 
0.161118 
0.161118 
0.161118 
0.161118 
0.195801 
0.195801 
0.195801 
0.195801 
0.23544 
0.23544 
0.23544 
0.23544 
0.280032 
0.280032 
0.280032 
0.280032 
0.329369 
0.329369 
0.329369 
0.329369 
0.382996 
0.382996 
0.382996 
0.382996 
0.440198 
0.440198 
0.440198 
0.440198 
0.5 
0.5 
0.5 
0.5 
0.561193 
0.561193 
0.561193 
0.561193 
0.622386 
0.622386 
0.622386 
0.622386 
0.682086 
0.682086 
0.682086 
0.682086 
0.738801 
0.738801 
0.738801 
0.738801 
0.791154 
0.791154 
0.791154 
0.791154 
0.837996 
0.837996 
0.837996 
0.837996 
0.878508 
0.878508 
0.878508 
0.878508 
0.912267 
0.912267 
0.912267 
0.912267 
0.939275 
0.939275 
0.939275 
0.939275 
0.959928 
0.959928 
0.959928 
0.959928 
0.974949 
0.974949 
0.974949 
0.974949 
0.985275 
0.985275 
0.985275 
0.985275 
0.991938 
0.991938 
0.991938 
0.991938 
0.995935 
0.995935 
0.995935 
0.995935 
0.99814 
0.99814 
0.99814 
0.99814 
0.999243 
0.999243 
0.999243 
0.999243 
0.999733 
0.999733 
0.999733 
0.999733 
0.999922 
0.999922 
0.999922 
0.999922 
0.999982 
0.999982 
0.999982 
0.999982 
0.999997 
0.999997 
0.999997 
0.999997 
1 
1 
1 
1 

SCALARS So float
LOOKUP_TABLE default
0.999617 
0.999617 
0.999617 
0.999617 
0.999453 
0.999453 
0.999453 
0.999453 
0.999225 
0.999225 
0.999225 
0.999225 
0.998907 
0.998907 
0.998907 
0.998907 
0.998467 
0.998467 
0.998467 
0.998467 
0.997864 
0.997864 
0.997864 
0.997864 
0.997041 
0.997041 
0.997041 
0.997041 
0.995927 
0.995927 
0.995927 
0.995927 
0.994429 
0.994429 
0.994429 
0.994429 
0.992433 
0.992433 
0.992433 
0.992433 
0.989793 
0.989793 
0.989793 
0.989793 
0.98633 
0.98633 
0.98633 
0.98633 
0.981828 
0.981828 
0.981828 
0.981828 
0.97603 
0.97603 
0.97603 
0.97603 
0.968632 
0.968632 
0.968632 
0.968632 
0.959287 
0.959287 
0.959287 
0.959287 
0.947605 
0.947605 
0.947605 
0.947605 
0.933163 
0.933163 
0.933163 
0.933163 
0.915511 
0.915511 
0.915511 
0.915511 
0.894196 
0.894196 
0.894196 
0.894196 
0.868781 
0.868781 
0.868781 
0.868781 
0.838882 
0.838882 
0.838882 
0.838882 
0.804199 
0.804199 
0.804199 
0.804199 
0.76456 
0.76456 
0.76456 
0.76456 
0.719968 
0.719968 
0.719968 
0.719968 
0.670631 
0.670631 
0.670631 
0.670631 
0.617004 
0.617004 
0.617004 
0.617004 
0.559802 
0.559802 
0.559802 
0.559802 
0.5 
0.5 
0.5 
0.5 
0.438807 
0.438807 
0.438807 
0.438807 
0.377614 
0.377614 
0.377614 
0.377614 
0.317914 
0.317914 
0.317914 
0.317914 
0.261199 
0.261199 
0.261199 
0.261199 
0.208846 
0.208846 
0.208846 
0.208846 
0.162004 
0.162004 
0.162004 
0.162004 
0.121492 
0.121492 
0.121492 
0.121492 
0.0877326 
0.0877326 
0.0877326 
0.0877326 
0.0607247 
0.0607247 
0.0607247 
0.0607247 
0.0400717 
0.0400717 
0.0400717 
0.0400717 
0.0250512 
0.0250512 
0.0250512 
0.0250512 
0.0147247 
0.0147247 
0.0147247 
0.0147247 
0.0080624 
0.0080624 
0.0080624 
0.0080624 
0.00406503 
0.00406503 
0.00406503 
0.00406503 
0.00185958 
0.00185958 
0.00185958 
0.00185958 
0.00075686 
0.00075686 
0.00075686 
0.00075686 
0.000266761 
0.000266761 
0.000266761 
0.000266761 
7.82609e-05 
7.82609e-05 
7.82609e-05 
7.82609e-05 
1.7941e-05 
1.7941e-05 
1.7941e-05 
1.7941e-05 
2.86102e-06 
2.86102e-06 
2.86102e-06 
2.86102e-06 
2.38418e-07 
2.38418e-07 
2.38418e-07 
2.38418e-07 

