# vtk DataFile Version 3.0
Arquivo gerado por PZ
ASCII

DATASET UNSTRUCTURED_GRID
POINTS 200 float
0 0 0
0 10 0
2 0 0
2 10 0
2 0 0
2 10 0
4 0 0
4 10 0
4 0 0
4 10 0
6 0 0
6 10 0
6 0 0
6 10 0
8 0 0
8 10 0
8 0 0
8 10 0
10 0 0
10 10 0
10 0 0
10 10 0
12 0 0
12 10 0
12 0 0
12 10 0
14 0 0
14 10 0
14 0 0
14 10 0
16 0 0
16 10 0
16 0 0
16 10 0
18 0 0
18 10 0
18 0 0
18 10 0
20 0 0
20 10 0
20 0 0
20 10 0
22 0 0
22 10 0
22 0 0
22 10 0
24 0 0
24 10 0
24 0 0
24 10 0
26 0 0
26 10 0
26 0 0
26 10 0
28 0 0
28 10 0
28 0 0
28 10 0
30 0 0
30 10 0
30 0 0
30 10 0
32 0 0
32 10 0
32 0 0
32 10 0
34 0 0
34 10 0
34 0 0
34 10 0
36 0 0
36 10 0
36 0 0
36 10 0
38 0 0
38 10 0
38 0 0
38 10 0
40 0 0
40 10 0
40 0 0
40 10 0
42 0 0
42 10 0
42 0 0
42 10 0
44 0 0
44 10 0
44 0 0
44 10 0
46 0 0
46 10 0
46 0 0
46 10 0
48 0 0
48 10 0
48 0 0
48 10 0
50 0 0
50 10 0
50 0 0
50 10 0
52 0 0
52 10 0
52 0 0
52 10 0
54 0 0
54 10 0
54 0 0
54 10 0
56 0 0
56 10 0
56 0 0
56 10 0
58 0 0
58 10 0
58 0 0
58 10 0
60 0 0
60 10 0
60 0 0
60 10 0
62 0 0
62 10 0
62 0 0
62 10 0
64 0 0
64 10 0
64 0 0
64 10 0
66 0 0
66 10 0
66 0 0
66 10 0
68 0 0
68 10 0
68 0 0
68 10 0
70 0 0
70 10 0
70 0 0
70 10 0
72 0 0
72 10 0
72 0 0
72 10 0
74 0 0
74 10 0
74 0 0
74 10 0
76 0 0
76 10 0
76 0 0
76 10 0
78 0 0
78 10 0
78 0 0
78 10 0
80 0 0
80 10 0
80 0 0
80 10 0
82 0 0
82 10 0
82 0 0
82 10 0
84 0 0
84 10 0
84 0 0
84 10 0
86 0 0
86 10 0
86 0 0
86 10 0
88 0 0
88 10 0
88 0 0
88 10 0
90 0 0
90 10 0
90 0 0
90 10 0
92 0 0
92 10 0
92 0 0
92 10 0
94 0 0
94 10 0
94 0 0
94 10 0
96 0 0
96 10 0
96 0 0
96 10 0
98 0 0
98 10 0
98 0 0
98 10 0
100 0 0
100 10 0

CELLS 50 250
4 0 2 3 1
4 4 6 7 5
4 8 10 11 9
4 12 14 15 13
4 16 18 19 17
4 20 22 23 21
4 24 26 27 25
4 28 30 31 29
4 32 34 35 33
4 36 38 39 37
4 40 42 43 41
4 44 46 47 45
4 48 50 51 49
4 52 54 55 53
4 56 58 59 57
4 60 62 63 61
4 64 66 67 65
4 68 70 71 69
4 72 74 75 73
4 76 78 79 77
4 80 82 83 81
4 84 86 87 85
4 88 90 91 89
4 92 94 95 93
4 96 98 99 97
4 100 102 103 101
4 104 106 107 105
4 108 110 111 109
4 112 114 115 113
4 116 118 119 117
4 120 122 123 121
4 124 126 127 125
4 128 130 131 129
4 132 134 135 133
4 136 138 139 137
4 140 142 143 141
4 144 146 147 145
4 148 150 151 149
4 152 154 155 153
4 156 158 159 157
4 160 162 163 161
4 164 166 167 165
4 168 170 171 169
4 172 174 175 173
4 176 178 179 177
4 180 182 183 181
4 184 186 187 185
4 188 190 191 189
4 192 194 195 193
4 196 198 199 197

CELL_TYPES 50
9
9
9
9
9
9
9
9
9
9
9
9
9
9
9
9
9
9
9
9
9
9
9
9
9
9
9
9
9
9
9
9
9
9
9
9
9
9
9
9
9
9
9
9
9
9
9
9
9
9

POINT_DATA 200
SCALARS Sw float
LOOKUP_TABLE default
6.74305e-10 
6.74305e-10 
6.74305e-10 
6.74305e-10 
1.08222e-09 
1.08222e-09 
1.08222e-09 
1.08222e-09 
1.80467e-09 
1.80467e-09 
1.80467e-09 
1.80467e-09 
3.08466e-09 
3.08466e-09 
3.08466e-09 
3.08466e-09 
5.35051e-09 
5.35051e-09 
5.35051e-09 
5.35051e-09 
9.35501e-09 
9.35501e-09 
9.35501e-09 
9.35501e-09 
1.64175e-08 
1.64175e-08 
1.64175e-08 
1.64175e-08 
2.88432e-08 
2.88432e-08 
2.88432e-08 
2.88432e-08 
5.06474e-08 
5.06474e-08 
5.06474e-08 
5.06474e-08 
8.88005e-08 
8.88005e-08 
8.88005e-08 
8.88005e-08 
1.55361e-07 
1.55361e-07 
1.55361e-07 
1.55361e-07 
2.71115e-07 
2.71115e-07 
2.71115e-07 
2.71115e-07 
4.71751e-07 
4.71751e-07 
4.71751e-07 
4.71751e-07 
8.183e-07 
8.183e-07 
8.183e-07 
8.183e-07 
1.41468e-06 
1.41468e-06 
1.41468e-06 
1.41468e-06 
2.43705e-06 
2.43705e-06 
2.43705e-06 
2.43705e-06 
4.18255e-06 
4.18255e-06 
4.18255e-06 
4.18255e-06 
7.14989e-06 
7.14989e-06 
7.14989e-06 
7.14989e-06 
1.21715e-05 
1.21715e-05 
1.21715e-05 
1.21715e-05 
2.06291e-05 
2.06291e-05 
2.06291e-05 
2.06291e-05 
3.48011e-05 
3.48011e-05 
3.48011e-05 
3.48011e-05 
5.84212e-05 
5.84212e-05 
5.84212e-05 
5.84212e-05 
9.75631e-05 
9.75631e-05 
9.75631e-05 
9.75631e-05 
0.000162032 
0.000162032 
0.000162032 
0.000162032 
0.000267527 
0.000267527 
0.000267527 
0.000267527 
0.000438955 
0.000438955 
0.000438955 
0.000438955 
0.000715453 
0.000715453 
0.000715453 
0.000715453 
0.00115785 
0.00115785 
0.00115785 
0.00115785 
0.00185958 
0.00185958 
0.00185958 
0.00185958 
0.00296231 
0.00296231 
0.00296231 
0.00296231 
0.00467765 
0.00467765 
0.00467765 
0.00467765 
0.00731665 
0.00731665 
0.00731665 
0.00731665 
0.0113279 
0.0113279 
0.0113279 
0.0113279 
0.0173448 
0.0173448 
0.0173448 
0.0173448 
0.0262394 
0.0262394 
0.0262394 
0.0262394 
0.0391769 
0.0391769 
0.0391769 
0.0391769 
0.0576591 
0.0576591 
0.0576591 
0.0576591 
0.0835342 
0.0835342 
0.0835342 
0.0835342 
0.118942 
0.118942 
0.118942 
0.118942 
0.166153 
0.166153 
0.166153 
0.166153 
0.227249 
0.227249 
0.227249 
0.227249 
0.303619 
0.303619 
0.303619 
0.303619 
0.395264 
0.395264 
0.395264 
0.395264 
0.5 
0.5 
0.5 
0.5 
0.612793 
0.612793 
0.612793 
0.612793 
0.725586 
0.725586 
0.725586 
0.725586 
0.828125 
0.828125 
0.828125 
0.828125 
0.910156 
0.910156 
0.910156 
0.910156 
0.964844 
0.964844 
0.964844 
0.964844 
0.992187 
0.992187 
0.992187 
0.992187 

SCALARS So float
LOOKUP_TABLE default
1 
1 
1 
1 
1 
1 
1 
1 
1 
1 
1 
1 
1 
1 
1 
1 
1 
1 
1 
1 
1 
1 
1 
1 
1 
1 
1 
1 
1 
1 
1 
1 
1 
1 
1 
1 
1 
1 
1 
1 
1 
1 
1 
1 
1 
1 
1 
1 
1 
1 
1 
1 
0.999999 
0.999999 
0.999999 
0.999999 
0.999999 
0.999999 
0.999999 
0.999999 
0.999998 
0.999998 
0.999998 
0.999998 
0.999996 
0.999996 
0.999996 
0.999996 
0.999993 
0.999993 
0.999993 
0.999993 
0.999988 
0.999988 
0.999988 
0.999988 
0.999979 
0.999979 
0.999979 
0.999979 
0.999965 
0.999965 
0.999965 
0.999965 
0.999942 
0.999942 
0.999942 
0.999942 
0.999902 
0.999902 
0.999902 
0.999902 
0.999838 
0.999838 
0.999838 
0.999838 
0.999732 
0.999732 
0.999732 
0.999732 
0.999561 
0.999561 
0.999561 
0.999561 
0.999285 
0.999285 
0.999285 
0.999285 
0.998842 
0.998842 
0.998842 
0.998842 
0.99814 
0.99814 
0.99814 
0.99814 
0.997038 
0.997038 
0.997038 
0.997038 
0.995322 
0.995322 
0.995322 
0.995322 
0.992683 
0.992683 
0.992683 
0.992683 
0.988672 
0.988672 
0.988672 
0.988672 
0.982655 
0.982655 
0.982655 
0.982655 
0.973761 
0.973761 
0.973761 
0.973761 
0.960823 
0.960823 
0.960823 
0.960823 
0.942341 
0.942341 
0.942341 
0.942341 
0.916466 
0.916466 
0.916466 
0.916466 
0.881058 
0.881058 
0.881058 
0.881058 
0.833847 
0.833847 
0.833847 
0.833847 
0.772751 
0.772751 
0.772751 
0.772751 
0.696381 
0.696381 
0.696381 
0.696381 
0.604736 
0.604736 
0.604736 
0.604736 
0.5 
0.5 
0.5 
0.5 
0.387207 
0.387207 
0.387207 
0.387207 
0.274414 
0.274414 
0.274414 
0.274414 
0.171875 
0.171875 
0.171875 
0.171875 
0.0898438 
0.0898438 
0.0898438 
0.0898438 
0.0351563 
0.0351563 
0.0351563 
0.0351563 
0.0078125 
0.0078125 
0.0078125 
0.0078125 

