# vtk DataFile Version 3.0
Arquivo gerado por PZ
ASCII

DATASET UNSTRUCTURED_GRID
POINTS 200 float
0 0 0
0 10 0
2 0 0
2 10 0
2 0 0
2 10 0
4 0 0
4 10 0
4 0 0
4 10 0
6 0 0
6 10 0
6 0 0
6 10 0
8 0 0
8 10 0
8 0 0
8 10 0
10 0 0
10 10 0
10 0 0
10 10 0
12 0 0
12 10 0
12 0 0
12 10 0
14 0 0
14 10 0
14 0 0
14 10 0
16 0 0
16 10 0
16 0 0
16 10 0
18 0 0
18 10 0
18 0 0
18 10 0
20 0 0
20 10 0
20 0 0
20 10 0
22 0 0
22 10 0
22 0 0
22 10 0
24 0 0
24 10 0
24 0 0
24 10 0
26 0 0
26 10 0
26 0 0
26 10 0
28 0 0
28 10 0
28 0 0
28 10 0
30 0 0
30 10 0
30 0 0
30 10 0
32 0 0
32 10 0
32 0 0
32 10 0
34 0 0
34 10 0
34 0 0
34 10 0
36 0 0
36 10 0
36 0 0
36 10 0
38 0 0
38 10 0
38 0 0
38 10 0
40 0 0
40 10 0
40 0 0
40 10 0
42 0 0
42 10 0
42 0 0
42 10 0
44 0 0
44 10 0
44 0 0
44 10 0
46 0 0
46 10 0
46 0 0
46 10 0
48 0 0
48 10 0
48 0 0
48 10 0
50 0 0
50 10 0
50 0 0
50 10 0
52 0 0
52 10 0
52 0 0
52 10 0
54 0 0
54 10 0
54 0 0
54 10 0
56 0 0
56 10 0
56 0 0
56 10 0
58 0 0
58 10 0
58 0 0
58 10 0
60 0 0
60 10 0
60 0 0
60 10 0
62 0 0
62 10 0
62 0 0
62 10 0
64 0 0
64 10 0
64 0 0
64 10 0
66 0 0
66 10 0
66 0 0
66 10 0
68 0 0
68 10 0
68 0 0
68 10 0
70 0 0
70 10 0
70 0 0
70 10 0
72 0 0
72 10 0
72 0 0
72 10 0
74 0 0
74 10 0
74 0 0
74 10 0
76 0 0
76 10 0
76 0 0
76 10 0
78 0 0
78 10 0
78 0 0
78 10 0
80 0 0
80 10 0
80 0 0
80 10 0
82 0 0
82 10 0
82 0 0
82 10 0
84 0 0
84 10 0
84 0 0
84 10 0
86 0 0
86 10 0
86 0 0
86 10 0
88 0 0
88 10 0
88 0 0
88 10 0
90 0 0
90 10 0
90 0 0
90 10 0
92 0 0
92 10 0
92 0 0
92 10 0
94 0 0
94 10 0
94 0 0
94 10 0
96 0 0
96 10 0
96 0 0
96 10 0
98 0 0
98 10 0
98 0 0
98 10 0
100 0 0
100 10 0

CELLS 50 250
4 0 2 3 1
4 4 6 7 5
4 8 10 11 9
4 12 14 15 13
4 16 18 19 17
4 20 22 23 21
4 24 26 27 25
4 28 30 31 29
4 32 34 35 33
4 36 38 39 37
4 40 42 43 41
4 44 46 47 45
4 48 50 51 49
4 52 54 55 53
4 56 58 59 57
4 60 62 63 61
4 64 66 67 65
4 68 70 71 69
4 72 74 75 73
4 76 78 79 77
4 80 82 83 81
4 84 86 87 85
4 88 90 91 89
4 92 94 95 93
4 96 98 99 97
4 100 102 103 101
4 104 106 107 105
4 108 110 111 109
4 112 114 115 113
4 116 118 119 117
4 120 122 123 121
4 124 126 127 125
4 128 130 131 129
4 132 134 135 133
4 136 138 139 137
4 140 142 143 141
4 144 146 147 145
4 148 150 151 149
4 152 154 155 153
4 156 158 159 157
4 160 162 163 161
4 164 166 167 165
4 168 170 171 169
4 172 174 175 173
4 176 178 179 177
4 180 182 183 181
4 184 186 187 185
4 188 190 191 189
4 192 194 195 193
4 196 198 199 197

CELL_TYPES 50
9
9
9
9
9
9
9
9
9
9
9
9
9
9
9
9
9
9
9
9
9
9
9
9
9
9
9
9
9
9
9
9
9
9
9
9
9
9
9
9
9
9
9
9
9
9
9
9
9
9

POINT_DATA 200
SCALARS Sw float
LOOKUP_TABLE default
1.50835e-06 
1.50835e-06 
1.50835e-06 
1.50835e-06 
2.40914e-06 
2.40914e-06 
2.40914e-06 
2.40914e-06 
3.83298e-06 
3.83298e-06 
3.83298e-06 
3.83298e-06 
6.07376e-06 
6.07376e-06 
6.07376e-06 
6.07376e-06 
9.58431e-06 
9.58431e-06 
9.58431e-06 
9.58431e-06 
1.50584e-05 
1.50584e-05 
1.50584e-05 
1.50584e-05 
2.35526e-05 
2.35526e-05 
2.35526e-05 
2.35526e-05 
3.66665e-05 
3.66665e-05 
3.66665e-05 
3.66665e-05 
5.68058e-05 
5.68058e-05 
5.68058e-05 
5.68058e-05 
8.75638e-05 
8.75638e-05 
8.75638e-05 
8.75638e-05 
0.000134271 
0.000134271 
0.000134271 
0.000134271 
0.000204771 
0.000204771 
0.000204771 
0.000204771 
0.000310522 
0.000310522 
0.000310522 
0.000310522 
0.000468112 
0.000468112 
0.000468112 
0.000468112 
0.000701345 
0.000701345 
0.000701345 
0.000701345 
0.00104405 
0.00104405 
0.00104405 
0.00104405 
0.00154384 
0.00154384 
0.00154384 
0.00154384 
0.00226693 
0.00226693 
0.00226693 
0.00226693 
0.00330441 
0.00330441 
0.00330441 
0.00330441 
0.00477994 
0.00477994 
0.00477994 
0.00477994 
0.00685909 
0.00685909 
0.00685909 
0.00685909 
0.00976024 
0.00976024 
0.00976024 
0.00976024 
0.0137666 
0.0137666 
0.0137666 
0.0137666 
0.0192387 
0.0192387 
0.0192387 
0.0192387 
0.026626 
0.026626 
0.026626 
0.026626 
0.0364757 
0.0364757 
0.0364757 
0.0364757 
0.0494359 
0.0494359 
0.0494359 
0.0494359 
0.0662491 
0.0662491 
0.0662491 
0.0662491 
0.0877326 
0.0877326 
0.0877326 
0.0877326 
0.114741 
0.114741 
0.114741 
0.114741 
0.148103 
0.148103 
0.148103 
0.148103 
0.188543 
0.188543 
0.188543 
0.188543 
0.236565 
0.236565 
0.236565 
0.236565 
0.292332 
0.292332 
0.292332 
0.292332 
0.355536 
0.355536 
0.355536 
0.355536 
0.425277 
0.425277 
0.425277 
0.425277 
0.5 
0.5 
0.5 
0.5 
0.577491 
0.577491 
0.577491 
0.577491 
0.654981 
0.654981 
0.654981 
0.654981 
0.729372 
0.729372 
0.729372 
0.729372 
0.797564 
0.797564 
0.797564 
0.797564 
0.856861 
0.856861 
0.856861 
0.856861 
0.905376 
0.905376 
0.905376 
0.905376 
0.942341 
0.942341 
0.942341 
0.942341 
0.968216 
0.968216 
0.968216 
0.968216 
0.984558 
0.984558 
0.984558 
0.984558 
0.993637 
0.993637 
0.993637 
0.993637 
0.99791 
0.99791 
0.99791 
0.99791 
0.999512 
0.999512 
0.999512 
0.999512 
0.999939 
0.999939 
0.999939 
0.999939 

SCALARS So float
LOOKUP_TABLE default
0.999998 
0.999998 
0.999998 
0.999998 
0.999998 
0.999998 
0.999998 
0.999998 
0.999996 
0.999996 
0.999996 
0.999996 
0.999994 
0.999994 
0.999994 
0.999994 
0.99999 
0.99999 
0.99999 
0.99999 
0.999985 
0.999985 
0.999985 
0.999985 
0.999976 
0.999976 
0.999976 
0.999976 
0.999963 
0.999963 
0.999963 
0.999963 
0.999943 
0.999943 
0.999943 
0.999943 
0.999912 
0.999912 
0.999912 
0.999912 
0.999866 
0.999866 
0.999866 
0.999866 
0.999795 
0.999795 
0.999795 
0.999795 
0.999689 
0.999689 
0.999689 
0.999689 
0.999532 
0.999532 
0.999532 
0.999532 
0.999299 
0.999299 
0.999299 
0.999299 
0.998956 
0.998956 
0.998956 
0.998956 
0.998456 
0.998456 
0.998456 
0.998456 
0.997733 
0.997733 
0.997733 
0.997733 
0.996696 
0.996696 
0.996696 
0.996696 
0.99522 
0.99522 
0.99522 
0.99522 
0.993141 
0.993141 
0.993141 
0.993141 
0.99024 
0.99024 
0.99024 
0.99024 
0.986233 
0.986233 
0.986233 
0.986233 
0.980761 
0.980761 
0.980761 
0.980761 
0.973374 
0.973374 
0.973374 
0.973374 
0.963524 
0.963524 
0.963524 
0.963524 
0.950564 
0.950564 
0.950564 
0.950564 
0.933751 
0.933751 
0.933751 
0.933751 
0.912267 
0.912267 
0.912267 
0.912267 
0.885259 
0.885259 
0.885259 
0.885259 
0.851897 
0.851897 
0.851897 
0.851897 
0.811457 
0.811457 
0.811457 
0.811457 
0.763435 
0.763435 
0.763435 
0.763435 
0.707668 
0.707668 
0.707668 
0.707668 
0.644464 
0.644464 
0.644464 
0.644464 
0.574723 
0.574723 
0.574723 
0.574723 
0.5 
0.5 
0.5 
0.5 
0.422509 
0.422509 
0.422509 
0.422509 
0.345019 
0.345019 
0.345019 
0.345019 
0.270628 
0.270628 
0.270628 
0.270628 
0.202436 
0.202436 
0.202436 
0.202436 
0.143139 
0.143139 
0.143139 
0.143139 
0.0946236 
0.0946236 
0.0946236 
0.0946236 
0.0576591 
0.0576591 
0.0576591 
0.0576591 
0.0317841 
0.0317841 
0.0317841 
0.0317841 
0.0154419 
0.0154419 
0.0154419 
0.0154419 
0.00636292 
0.00636292 
0.00636292 
0.00636292 
0.00209045 
0.00209045 
0.00209045 
0.00209045 
0.000488281 
0.000488281 
0.000488281 
0.000488281 
6.10352e-05 
6.10352e-05 
6.10352e-05 
6.10352e-05 

