# vtk DataFile Version 3.0
Arquivo gerado por PZ
ASCII

DATASET UNSTRUCTURED_GRID
POINTS 200 float
0 0 0
0 10 0
2 0 0
2 10 0
2 0 0
2 10 0
4 0 0
4 10 0
4 0 0
4 10 0
6 0 0
6 10 0
6 0 0
6 10 0
8 0 0
8 10 0
8 0 0
8 10 0
10 0 0
10 10 0
10 0 0
10 10 0
12 0 0
12 10 0
12 0 0
12 10 0
14 0 0
14 10 0
14 0 0
14 10 0
16 0 0
16 10 0
16 0 0
16 10 0
18 0 0
18 10 0
18 0 0
18 10 0
20 0 0
20 10 0
20 0 0
20 10 0
22 0 0
22 10 0
22 0 0
22 10 0
24 0 0
24 10 0
24 0 0
24 10 0
26 0 0
26 10 0
26 0 0
26 10 0
28 0 0
28 10 0
28 0 0
28 10 0
30 0 0
30 10 0
30 0 0
30 10 0
32 0 0
32 10 0
32 0 0
32 10 0
34 0 0
34 10 0
34 0 0
34 10 0
36 0 0
36 10 0
36 0 0
36 10 0
38 0 0
38 10 0
38 0 0
38 10 0
40 0 0
40 10 0
40 0 0
40 10 0
42 0 0
42 10 0
42 0 0
42 10 0
44 0 0
44 10 0
44 0 0
44 10 0
46 0 0
46 10 0
46 0 0
46 10 0
48 0 0
48 10 0
48 0 0
48 10 0
50 0 0
50 10 0
50 0 0
50 10 0
52 0 0
52 10 0
52 0 0
52 10 0
54 0 0
54 10 0
54 0 0
54 10 0
56 0 0
56 10 0
56 0 0
56 10 0
58 0 0
58 10 0
58 0 0
58 10 0
60 0 0
60 10 0
60 0 0
60 10 0
62 0 0
62 10 0
62 0 0
62 10 0
64 0 0
64 10 0
64 0 0
64 10 0
66 0 0
66 10 0
66 0 0
66 10 0
68 0 0
68 10 0
68 0 0
68 10 0
70 0 0
70 10 0
70 0 0
70 10 0
72 0 0
72 10 0
72 0 0
72 10 0
74 0 0
74 10 0
74 0 0
74 10 0
76 0 0
76 10 0
76 0 0
76 10 0
78 0 0
78 10 0
78 0 0
78 10 0
80 0 0
80 10 0
80 0 0
80 10 0
82 0 0
82 10 0
82 0 0
82 10 0
84 0 0
84 10 0
84 0 0
84 10 0
86 0 0
86 10 0
86 0 0
86 10 0
88 0 0
88 10 0
88 0 0
88 10 0
90 0 0
90 10 0
90 0 0
90 10 0
92 0 0
92 10 0
92 0 0
92 10 0
94 0 0
94 10 0
94 0 0
94 10 0
96 0 0
96 10 0
96 0 0
96 10 0
98 0 0
98 10 0
98 0 0
98 10 0
100 0 0
100 10 0

CELLS 50 250
4 0 2 3 1
4 4 6 7 5
4 8 10 11 9
4 12 14 15 13
4 16 18 19 17
4 20 22 23 21
4 24 26 27 25
4 28 30 31 29
4 32 34 35 33
4 36 38 39 37
4 40 42 43 41
4 44 46 47 45
4 48 50 51 49
4 52 54 55 53
4 56 58 59 57
4 60 62 63 61
4 64 66 67 65
4 68 70 71 69
4 72 74 75 73
4 76 78 79 77
4 80 82 83 81
4 84 86 87 85
4 88 90 91 89
4 92 94 95 93
4 96 98 99 97
4 100 102 103 101
4 104 106 107 105
4 108 110 111 109
4 112 114 115 113
4 116 118 119 117
4 120 122 123 121
4 124 126 127 125
4 128 130 131 129
4 132 134 135 133
4 136 138 139 137
4 140 142 143 141
4 144 146 147 145
4 148 150 151 149
4 152 154 155 153
4 156 158 159 157
4 160 162 163 161
4 164 166 167 165
4 168 170 171 169
4 172 174 175 173
4 176 178 179 177
4 180 182 183 181
4 184 186 187 185
4 188 190 191 189
4 192 194 195 193
4 196 198 199 197

CELL_TYPES 50
9
9
9
9
9
9
9
9
9
9
9
9
9
9
9
9
9
9
9
9
9
9
9
9
9
9
9
9
9
9
9
9
9
9
9
9
9
9
9
9
9
9
9
9
9
9
9
9
9
9

POINT_DATA 200
SCALARS Sw float
LOOKUP_TABLE default
3.36904e-05 
3.36904e-05 
3.36904e-05 
3.36904e-05 
5.07391e-05 
5.07391e-05 
5.07391e-05 
5.07391e-05 
7.60538e-05 
7.60538e-05 
7.60538e-05 
7.60538e-05 
0.000113442 
0.000113442 
0.000113442 
0.000113442 
0.000168355 
0.000168355 
0.000168355 
0.000168355 
0.000248546 
0.000248546 
0.000248546 
0.000248546 
0.000364953 
0.000364953 
0.000364953 
0.000364953 
0.000532883 
0.000532883 
0.000532883 
0.000532883 
0.000773584 
0.000773584 
0.000773584 
0.000773584 
0.00111628 
0.00111628 
0.00111628 
0.00111628 
0.00160077 
0.00160077 
0.00160077 
0.00160077 
0.00228077 
0.00228077 
0.00228077 
0.00228077 
0.0032279 
0.0032279 
0.0032279 
0.0032279 
0.00453667 
0.00453667 
0.00453667 
0.00453667 
0.00633017 
0.00633017 
0.00633017 
0.00633017 
0.00876662 
0.00876662 
0.00876662 
0.00876662 
0.0120465 
0.0120465 
0.0120465 
0.0120465 
0.0164196 
0.0164196 
0.0164196 
0.0164196 
0.0221921 
0.0221921 
0.0221921 
0.0221921 
0.0297317 
0.0297317 
0.0297317 
0.0297317 
0.0394703 
0.0394703 
0.0394703 
0.0394703 
0.0519027 
0.0519027 
0.0519027 
0.0519027 
0.0675782 
0.0675782 
0.0675782 
0.0675782 
0.0870856 
0.0870856 
0.0870856 
0.0870856 
0.111026 
0.111026 
0.111026 
0.111026 
0.139978 
0.139978 
0.139978 
0.139978 
0.174444 
0.174444 
0.174444 
0.174444 
0.214795 
0.214795 
0.214795 
0.214795 
0.261199 
0.261199 
0.261199 
0.261199 
0.313551 
0.313551 
0.313551 
0.313551 
0.371415 
0.371415 
0.371415 
0.371415 
0.43397 
0.43397 
0.43397 
0.43397 
0.5 
0.5 
0.5 
0.5 
0.567917 
0.567917 
0.567917 
0.567917 
0.635834 
0.635834 
0.635834 
0.635834 
0.701693 
0.701693 
0.701693 
0.701693 
0.763435 
0.763435 
0.763435 
0.763435 
0.819203 
0.819203 
0.819203 
0.819203 
0.867535 
0.867535 
0.867535 
0.867535 
0.907533 
0.907533 
0.907533 
0.907533 
0.938961 
0.938961 
0.938961 
0.938961 
0.962241 
0.962241 
0.962241 
0.962241 
0.978357 
0.978357 
0.978357 
0.978357 
0.988672 
0.988672 
0.988672 
0.988672 
0.994689 
0.994689 
0.994689 
0.994689 
0.997828 
0.997828 
0.997828 
0.997828 
0.999255 
0.999255 
0.999255 
0.999255 
0.999799 
0.999799 
0.999799 
0.999799 
0.999962 
0.999962 
0.999962 
0.999962 
0.999996 
0.999996 
0.999996 
0.999996 

SCALARS So float
LOOKUP_TABLE default
0.999966 
0.999966 
0.999966 
0.999966 
0.999949 
0.999949 
0.999949 
0.999949 
0.999924 
0.999924 
0.999924 
0.999924 
0.999887 
0.999887 
0.999887 
0.999887 
0.999832 
0.999832 
0.999832 
0.999832 
0.999751 
0.999751 
0.999751 
0.999751 
0.999635 
0.999635 
0.999635 
0.999635 
0.999467 
0.999467 
0.999467 
0.999467 
0.999226 
0.999226 
0.999226 
0.999226 
0.998884 
0.998884 
0.998884 
0.998884 
0.998399 
0.998399 
0.998399 
0.998399 
0.997719 
0.997719 
0.997719 
0.997719 
0.996772 
0.996772 
0.996772 
0.996772 
0.995463 
0.995463 
0.995463 
0.995463 
0.99367 
0.99367 
0.99367 
0.99367 
0.991233 
0.991233 
0.991233 
0.991233 
0.987954 
0.987954 
0.987954 
0.987954 
0.98358 
0.98358 
0.98358 
0.98358 
0.977808 
0.977808 
0.977808 
0.977808 
0.970268 
0.970268 
0.970268 
0.970268 
0.96053 
0.96053 
0.96053 
0.96053 
0.948097 
0.948097 
0.948097 
0.948097 
0.932422 
0.932422 
0.932422 
0.932422 
0.912914 
0.912914 
0.912914 
0.912914 
0.888974 
0.888974 
0.888974 
0.888974 
0.860022 
0.860022 
0.860022 
0.860022 
0.825556 
0.825556 
0.825556 
0.825556 
0.785205 
0.785205 
0.785205 
0.785205 
0.738801 
0.738801 
0.738801 
0.738801 
0.686449 
0.686449 
0.686449 
0.686449 
0.628585 
0.628585 
0.628585 
0.628585 
0.56603 
0.56603 
0.56603 
0.56603 
0.5 
0.5 
0.5 
0.5 
0.432083 
0.432083 
0.432083 
0.432083 
0.364166 
0.364166 
0.364166 
0.364166 
0.298307 
0.298307 
0.298307 
0.298307 
0.236565 
0.236565 
0.236565 
0.236565 
0.180797 
0.180797 
0.180797 
0.180797 
0.132465 
0.132465 
0.132465 
0.132465 
0.0924667 
0.0924667 
0.0924667 
0.0924667 
0.0610391 
0.0610391 
0.0610391 
0.0610391 
0.0377593 
0.0377593 
0.0377593 
0.0377593 
0.0216426 
0.0216426 
0.0216426 
0.0216426 
0.0113279 
0.0113279 
0.0113279 
0.0113279 
0.00531101 
0.00531101 
0.00531101 
0.00531101 
0.00217175 
0.00217175 
0.00217175 
0.00217175 
0.00074482 
0.00074482 
0.00074482 
0.00074482 
0.000201225 
0.000201225 
0.000201225 
0.000201225 
3.8147e-05 
3.8147e-05 
3.8147e-05 
3.8147e-05 
3.8147e-06 
3.8147e-06 
3.8147e-06 
3.8147e-06 

