# vtk DataFile Version 3.0
Arquivo gerado por PZ
ASCII

DATASET UNSTRUCTURED_GRID
POINTS 200 float
0 0 0
0 10 0
2 0 0
2 10 0
2 0 0
2 10 0
4 0 0
4 10 0
4 0 0
4 10 0
6 0 0
6 10 0
6 0 0
6 10 0
8 0 0
8 10 0
8 0 0
8 10 0
10 0 0
10 10 0
10 0 0
10 10 0
12 0 0
12 10 0
12 0 0
12 10 0
14 0 0
14 10 0
14 0 0
14 10 0
16 0 0
16 10 0
16 0 0
16 10 0
18 0 0
18 10 0
18 0 0
18 10 0
20 0 0
20 10 0
20 0 0
20 10 0
22 0 0
22 10 0
22 0 0
22 10 0
24 0 0
24 10 0
24 0 0
24 10 0
26 0 0
26 10 0
26 0 0
26 10 0
28 0 0
28 10 0
28 0 0
28 10 0
30 0 0
30 10 0
30 0 0
30 10 0
32 0 0
32 10 0
32 0 0
32 10 0
34 0 0
34 10 0
34 0 0
34 10 0
36 0 0
36 10 0
36 0 0
36 10 0
38 0 0
38 10 0
38 0 0
38 10 0
40 0 0
40 10 0
40 0 0
40 10 0
42 0 0
42 10 0
42 0 0
42 10 0
44 0 0
44 10 0
44 0 0
44 10 0
46 0 0
46 10 0
46 0 0
46 10 0
48 0 0
48 10 0
48 0 0
48 10 0
50 0 0
50 10 0
50 0 0
50 10 0
52 0 0
52 10 0
52 0 0
52 10 0
54 0 0
54 10 0
54 0 0
54 10 0
56 0 0
56 10 0
56 0 0
56 10 0
58 0 0
58 10 0
58 0 0
58 10 0
60 0 0
60 10 0
60 0 0
60 10 0
62 0 0
62 10 0
62 0 0
62 10 0
64 0 0
64 10 0
64 0 0
64 10 0
66 0 0
66 10 0
66 0 0
66 10 0
68 0 0
68 10 0
68 0 0
68 10 0
70 0 0
70 10 0
70 0 0
70 10 0
72 0 0
72 10 0
72 0 0
72 10 0
74 0 0
74 10 0
74 0 0
74 10 0
76 0 0
76 10 0
76 0 0
76 10 0
78 0 0
78 10 0
78 0 0
78 10 0
80 0 0
80 10 0
80 0 0
80 10 0
82 0 0
82 10 0
82 0 0
82 10 0
84 0 0
84 10 0
84 0 0
84 10 0
86 0 0
86 10 0
86 0 0
86 10 0
88 0 0
88 10 0
88 0 0
88 10 0
90 0 0
90 10 0
90 0 0
90 10 0
92 0 0
92 10 0
92 0 0
92 10 0
94 0 0
94 10 0
94 0 0
94 10 0
96 0 0
96 10 0
96 0 0
96 10 0
98 0 0
98 10 0
98 0 0
98 10 0
100 0 0
100 10 0

CELLS 50 250
4 0 2 3 1
4 4 6 7 5
4 8 10 11 9
4 12 14 15 13
4 16 18 19 17
4 20 22 23 21
4 24 26 27 25
4 28 30 31 29
4 32 34 35 33
4 36 38 39 37
4 40 42 43 41
4 44 46 47 45
4 48 50 51 49
4 52 54 55 53
4 56 58 59 57
4 60 62 63 61
4 64 66 67 65
4 68 70 71 69
4 72 74 75 73
4 76 78 79 77
4 80 82 83 81
4 84 86 87 85
4 88 90 91 89
4 92 94 95 93
4 96 98 99 97
4 100 102 103 101
4 104 106 107 105
4 108 110 111 109
4 112 114 115 113
4 116 118 119 117
4 120 122 123 121
4 124 126 127 125
4 128 130 131 129
4 132 134 135 133
4 136 138 139 137
4 140 142 143 141
4 144 146 147 145
4 148 150 151 149
4 152 154 155 153
4 156 158 159 157
4 160 162 163 161
4 164 166 167 165
4 168 170 171 169
4 172 174 175 173
4 176 178 179 177
4 180 182 183 181
4 184 186 187 185
4 188 190 191 189
4 192 194 195 193
4 196 198 199 197

CELL_TYPES 50
9
9
9
9
9
9
9
9
9
9
9
9
9
9
9
9
9
9
9
9
9
9
9
9
9
9
9
9
9
9
9
9
9
9
9
9
9
9
9
9
9
9
9
9
9
9
9
9
9
9

POINT_DATA 200
SCALARS Sw float
LOOKUP_TABLE default
7.85895e-06 
7.85895e-06 
7.85895e-06 
7.85895e-06 
1.21827e-05 
1.21827e-05 
1.21827e-05 
1.21827e-05 
1.88035e-05 
1.88035e-05 
1.88035e-05 
1.88035e-05 
2.88923e-05 
2.88923e-05 
2.88923e-05 
2.88923e-05 
4.41883e-05 
4.41883e-05 
4.41883e-05 
4.41883e-05 
6.72575e-05 
6.72575e-05 
6.72575e-05 
6.72575e-05 
0.000101861 
0.000101861 
0.000101861 
0.000101861 
0.000153474 
0.000153474 
0.000153474 
0.000153474 
0.000230003 
0.000230003 
0.000230003 
0.000230003 
0.000342783 
0.000342783 
0.000342783 
0.000342783 
0.000507924 
0.000507924 
0.000507924 
0.000507924 
0.00074813 
0.00074813 
0.00074813 
0.00074813 
0.00109509 
0.00109509 
0.00109509 
0.00109509 
0.00159263 
0.00159263 
0.00159263 
0.00159263 
0.00230066 
0.00230066 
0.00230066 
0.00230066 
0.00330022 
0.00330022 
0.00330022 
0.00330022 
0.00469962 
0.00469962 
0.00469962 
0.00469962 
0.00664164 
0.00664164 
0.00664164 
0.00664164 
0.00931192 
0.00931192 
0.00931192 
0.00931192 
0.012948 
0.012948 
0.012948 
0.012948 
0.0178489 
0.0178489 
0.0178489 
0.0178489 
0.0243834 
0.0243834 
0.0243834 
0.0243834 
0.032997 
0.032997 
0.032997 
0.032997 
0.0442148 
0.0442148 
0.0442148 
0.0442148 
0.0586376 
0.0586376 
0.0586376 
0.0586376 
0.07693 
0.07693 
0.07693 
0.07693 
0.0997954 
0.0997954 
0.0997954 
0.0997954 
0.127938 
0.127938 
0.127938 
0.127938 
0.162004 
0.162004 
0.162004 
0.162004 
0.202516 
0.202516 
0.202516 
0.202516 
0.24978 
0.24978 
0.24978 
0.24978 
0.303796 
0.303796 
0.303796 
0.303796 
0.364166 
0.364166 
0.364166 
0.364166 
0.430025 
0.430025 
0.430025 
0.430025 
0.5 
0.5 
0.5 
0.5 
0.572232 
0.572232 
0.572232 
0.572232 
0.644464 
0.644464 
0.644464 
0.644464 
0.714206 
0.714206 
0.714206 
0.714206 
0.778966 
0.778966 
0.778966 
0.778966 
0.83653 
0.83653 
0.83653 
0.83653 
0.885239 
0.885239 
0.885239 
0.885239 
0.924205 
0.924205 
0.924205 
0.924205 
0.95343 
0.95343 
0.95343 
0.95343 
0.973761 
0.973761 
0.973761 
0.973761 
0.986698 
0.986698 
0.986698 
0.986698 
0.994091 
0.994091 
0.994091 
0.994091 
0.997787 
0.997787 
0.997787 
0.997787 
0.999344 
0.999344 
0.999344 
0.999344 
0.999863 
0.999863 
0.999863 
0.999863 
0.999985 
0.999985 
0.999985 
0.999985 

SCALARS So float
LOOKUP_TABLE default
0.999992 
0.999992 
0.999992 
0.999992 
0.999988 
0.999988 
0.999988 
0.999988 
0.999981 
0.999981 
0.999981 
0.999981 
0.999971 
0.999971 
0.999971 
0.999971 
0.999956 
0.999956 
0.999956 
0.999956 
0.999933 
0.999933 
0.999933 
0.999933 
0.999898 
0.999898 
0.999898 
0.999898 
0.999847 
0.999847 
0.999847 
0.999847 
0.99977 
0.99977 
0.99977 
0.99977 
0.999657 
0.999657 
0.999657 
0.999657 
0.999492 
0.999492 
0.999492 
0.999492 
0.999252 
0.999252 
0.999252 
0.999252 
0.998905 
0.998905 
0.998905 
0.998905 
0.998407 
0.998407 
0.998407 
0.998407 
0.997699 
0.997699 
0.997699 
0.997699 
0.9967 
0.9967 
0.9967 
0.9967 
0.9953 
0.9953 
0.9953 
0.9953 
0.993358 
0.993358 
0.993358 
0.993358 
0.990688 
0.990688 
0.990688 
0.990688 
0.987052 
0.987052 
0.987052 
0.987052 
0.982151 
0.982151 
0.982151 
0.982151 
0.975617 
0.975617 
0.975617 
0.975617 
0.967003 
0.967003 
0.967003 
0.967003 
0.955785 
0.955785 
0.955785 
0.955785 
0.941362 
0.941362 
0.941362 
0.941362 
0.92307 
0.92307 
0.92307 
0.92307 
0.900205 
0.900205 
0.900205 
0.900205 
0.872062 
0.872062 
0.872062 
0.872062 
0.837996 
0.837996 
0.837996 
0.837996 
0.797484 
0.797484 
0.797484 
0.797484 
0.75022 
0.75022 
0.75022 
0.75022 
0.696204 
0.696204 
0.696204 
0.696204 
0.635834 
0.635834 
0.635834 
0.635834 
0.569975 
0.569975 
0.569975 
0.569975 
0.5 
0.5 
0.5 
0.5 
0.427768 
0.427768 
0.427768 
0.427768 
0.355536 
0.355536 
0.355536 
0.355536 
0.285794 
0.285794 
0.285794 
0.285794 
0.221034 
0.221034 
0.221034 
0.221034 
0.16347 
0.16347 
0.16347 
0.16347 
0.114761 
0.114761 
0.114761 
0.114761 
0.0757948 
0.0757948 
0.0757948 
0.0757948 
0.0465698 
0.0465698 
0.0465698 
0.0465698 
0.0262394 
0.0262394 
0.0262394 
0.0262394 
0.0133018 
0.0133018 
0.0133018 
0.0133018 
0.00590897 
0.00590897 
0.00590897 
0.00590897 
0.00221252 
0.00221252 
0.00221252 
0.00221252 
0.000656128 
0.000656128 
0.000656128 
0.000656128 
0.000137329 
0.000137329 
0.000137329 
0.000137329 
1.52588e-05 
1.52588e-05 
1.52588e-05 
1.52588e-05 

