# vtk DataFile Version 3.0
Arquivo gerado por PZ
ASCII

DATASET UNSTRUCTURED_GRID
POINTS 200 float
0 0 0
0 10 0
2 0 0
2 10 0
2 0 0
2 10 0
4 0 0
4 10 0
4 0 0
4 10 0
6 0 0
6 10 0
6 0 0
6 10 0
8 0 0
8 10 0
8 0 0
8 10 0
10 0 0
10 10 0
10 0 0
10 10 0
12 0 0
12 10 0
12 0 0
12 10 0
14 0 0
14 10 0
14 0 0
14 10 0
16 0 0
16 10 0
16 0 0
16 10 0
18 0 0
18 10 0
18 0 0
18 10 0
20 0 0
20 10 0
20 0 0
20 10 0
22 0 0
22 10 0
22 0 0
22 10 0
24 0 0
24 10 0
24 0 0
24 10 0
26 0 0
26 10 0
26 0 0
26 10 0
28 0 0
28 10 0
28 0 0
28 10 0
30 0 0
30 10 0
30 0 0
30 10 0
32 0 0
32 10 0
32 0 0
32 10 0
34 0 0
34 10 0
34 0 0
34 10 0
36 0 0
36 10 0
36 0 0
36 10 0
38 0 0
38 10 0
38 0 0
38 10 0
40 0 0
40 10 0
40 0 0
40 10 0
42 0 0
42 10 0
42 0 0
42 10 0
44 0 0
44 10 0
44 0 0
44 10 0
46 0 0
46 10 0
46 0 0
46 10 0
48 0 0
48 10 0
48 0 0
48 10 0
50 0 0
50 10 0
50 0 0
50 10 0
52 0 0
52 10 0
52 0 0
52 10 0
54 0 0
54 10 0
54 0 0
54 10 0
56 0 0
56 10 0
56 0 0
56 10 0
58 0 0
58 10 0
58 0 0
58 10 0
60 0 0
60 10 0
60 0 0
60 10 0
62 0 0
62 10 0
62 0 0
62 10 0
64 0 0
64 10 0
64 0 0
64 10 0
66 0 0
66 10 0
66 0 0
66 10 0
68 0 0
68 10 0
68 0 0
68 10 0
70 0 0
70 10 0
70 0 0
70 10 0
72 0 0
72 10 0
72 0 0
72 10 0
74 0 0
74 10 0
74 0 0
74 10 0
76 0 0
76 10 0
76 0 0
76 10 0
78 0 0
78 10 0
78 0 0
78 10 0
80 0 0
80 10 0
80 0 0
80 10 0
82 0 0
82 10 0
82 0 0
82 10 0
84 0 0
84 10 0
84 0 0
84 10 0
86 0 0
86 10 0
86 0 0
86 10 0
88 0 0
88 10 0
88 0 0
88 10 0
90 0 0
90 10 0
90 0 0
90 10 0
92 0 0
92 10 0
92 0 0
92 10 0
94 0 0
94 10 0
94 0 0
94 10 0
96 0 0
96 10 0
96 0 0
96 10 0
98 0 0
98 10 0
98 0 0
98 10 0
100 0 0
100 10 0

CELLS 50 250
4 0 2 3 1
4 4 6 7 5
4 8 10 11 9
4 12 14 15 13
4 16 18 19 17
4 20 22 23 21
4 24 26 27 25
4 28 30 31 29
4 32 34 35 33
4 36 38 39 37
4 40 42 43 41
4 44 46 47 45
4 48 50 51 49
4 52 54 55 53
4 56 58 59 57
4 60 62 63 61
4 64 66 67 65
4 68 70 71 69
4 72 74 75 73
4 76 78 79 77
4 80 82 83 81
4 84 86 87 85
4 88 90 91 89
4 92 94 95 93
4 96 98 99 97
4 100 102 103 101
4 104 106 107 105
4 108 110 111 109
4 112 114 115 113
4 116 118 119 117
4 120 122 123 121
4 124 126 127 125
4 128 130 131 129
4 132 134 135 133
4 136 138 139 137
4 140 142 143 141
4 144 146 147 145
4 148 150 151 149
4 152 154 155 153
4 156 158 159 157
4 160 162 163 161
4 164 166 167 165
4 168 170 171 169
4 172 174 175 173
4 176 178 179 177
4 180 182 183 181
4 184 186 187 185
4 188 190 191 189
4 192 194 195 193
4 196 198 199 197

CELL_TYPES 50
9
9
9
9
9
9
9
9
9
9
9
9
9
9
9
9
9
9
9
9
9
9
9
9
9
9
9
9
9
9
9
9
9
9
9
9
9
9
9
9
9
9
9
9
9
9
9
9
9
9

POINT_DATA 200
SCALARS Sw float
LOOKUP_TABLE default
6.07528e-07 
6.07528e-07 
6.07528e-07 
6.07528e-07 
9.85288e-07 
9.85288e-07 
9.85288e-07 
9.85288e-07 
1.59217e-06 
1.59217e-06 
1.59217e-06 
1.59217e-06 
2.56318e-06 
2.56318e-06 
2.56318e-06 
2.56318e-06 
4.11021e-06 
4.11021e-06 
4.11021e-06 
4.11021e-06 
6.56411e-06 
6.56411e-06 
6.56411e-06 
6.56411e-06 
1.04387e-05 
1.04387e-05 
1.04387e-05 
1.04387e-05 
1.65273e-05 
1.65273e-05 
1.65273e-05 
1.65273e-05 
2.60477e-05 
2.60477e-05 
2.60477e-05 
2.60477e-05 
4.08571e-05 
4.08571e-05 
4.08571e-05 
4.08571e-05 
6.37698e-05 
6.37698e-05 
6.37698e-05 
6.37698e-05 
9.90202e-05 
9.90202e-05 
9.90202e-05 
9.90202e-05 
0.000152932 
0.000152932 
0.000152932 
0.000152932 
0.000234879 
0.000234879 
0.000234879 
0.000234879 
0.000358635 
0.000358635 
0.000358635 
0.000358635 
0.00054427 
0.00054427 
0.00054427 
0.00054427 
0.000820746 
0.000820746 
0.000820746 
0.000820746 
0.00122945 
0.00122945 
0.00122945 
0.00122945 
0.00182888 
0.00182888 
0.00182888 
0.00182888 
0.00270079 
0.00270079 
0.00270079 
0.00270079 
0.00395795 
0.00395795 
0.00395795 
0.00395795 
0.0057539 
0.0057539 
0.0057539 
0.0057539 
0.0082945 
0.0082945 
0.0082945 
0.0082945 
0.0118514 
0.0118514 
0.0118514 
0.0118514 
0.0167762 
0.0167762 
0.0167762 
0.0167762 
0.0235155 
0.0235155 
0.0235155 
0.0235155 
0.0326227 
0.0326227 
0.0326227 
0.0326227 
0.0447655 
0.0447655 
0.0447655 
0.0447655 
0.0607247 
0.0607247 
0.0607247 
0.0607247 
0.0813778 
0.0813778 
0.0813778 
0.0813778 
0.107664 
0.107664 
0.107664 
0.107664 
0.140521 
0.140521 
0.140521 
0.140521 
0.180797 
0.180797 
0.180797 
0.180797 
0.229129 
0.229129 
0.229129 
0.229129 
0.285794 
0.285794 
0.285794 
0.285794 
0.350554 
0.350554 
0.350554 
0.350554 
0.422509 
0.422509 
0.422509 
0.422509 
0.5 
0.5 
0.5 
0.5 
0.58059 
0.58059 
0.58059 
0.58059 
0.66118 
0.66118 
0.66118 
0.66118 
0.738266 
0.738266 
0.738266 
0.738266 
0.808345 
0.808345 
0.808345 
0.808345 
0.868412 
0.868412 
0.868412 
0.868412 
0.916466 
0.916466 
0.916466 
0.916466 
0.951874 
0.951874 
0.951874 
0.951874 
0.975479 
0.975479 
0.975479 
0.975479 
0.989365 
0.989365 
0.989365 
0.989365 
0.996307 
0.996307 
0.996307 
0.996307 
0.999084 
0.999084 
0.999084 
0.999084 
0.999878 
0.999878 
0.999878 
0.999878 

SCALARS So float
LOOKUP_TABLE default
0.999999 
0.999999 
0.999999 
0.999999 
0.999999 
0.999999 
0.999999 
0.999999 
0.999998 
0.999998 
0.999998 
0.999998 
0.999997 
0.999997 
0.999997 
0.999997 
0.999996 
0.999996 
0.999996 
0.999996 
0.999993 
0.999993 
0.999993 
0.999993 
0.99999 
0.99999 
0.99999 
0.99999 
0.999983 
0.999983 
0.999983 
0.999983 
0.999974 
0.999974 
0.999974 
0.999974 
0.999959 
0.999959 
0.999959 
0.999959 
0.999936 
0.999936 
0.999936 
0.999936 
0.999901 
0.999901 
0.999901 
0.999901 
0.999847 
0.999847 
0.999847 
0.999847 
0.999765 
0.999765 
0.999765 
0.999765 
0.999641 
0.999641 
0.999641 
0.999641 
0.999456 
0.999456 
0.999456 
0.999456 
0.999179 
0.999179 
0.999179 
0.999179 
0.998771 
0.998771 
0.998771 
0.998771 
0.998171 
0.998171 
0.998171 
0.998171 
0.997299 
0.997299 
0.997299 
0.997299 
0.996042 
0.996042 
0.996042 
0.996042 
0.994246 
0.994246 
0.994246 
0.994246 
0.991705 
0.991705 
0.991705 
0.991705 
0.988149 
0.988149 
0.988149 
0.988149 
0.983224 
0.983224 
0.983224 
0.983224 
0.976484 
0.976484 
0.976484 
0.976484 
0.967377 
0.967377 
0.967377 
0.967377 
0.955234 
0.955234 
0.955234 
0.955234 
0.939275 
0.939275 
0.939275 
0.939275 
0.918622 
0.918622 
0.918622 
0.918622 
0.892336 
0.892336 
0.892336 
0.892336 
0.859479 
0.859479 
0.859479 
0.859479 
0.819203 
0.819203 
0.819203 
0.819203 
0.770871 
0.770871 
0.770871 
0.770871 
0.714206 
0.714206 
0.714206 
0.714206 
0.649446 
0.649446 
0.649446 
0.649446 
0.577491 
0.577491 
0.577491 
0.577491 
0.5 
0.5 
0.5 
0.5 
0.41941 
0.41941 
0.41941 
0.41941 
0.33882 
0.33882 
0.33882 
0.33882 
0.261734 
0.261734 
0.261734 
0.261734 
0.191655 
0.191655 
0.191655 
0.191655 
0.131588 
0.131588 
0.131588 
0.131588 
0.0835342 
0.0835342 
0.0835342 
0.0835342 
0.0481262 
0.0481262 
0.0481262 
0.0481262 
0.0245209 
0.0245209 
0.0245209 
0.0245209 
0.0106354 
0.0106354 
0.0106354 
0.0106354 
0.00369263 
0.00369263 
0.00369263 
0.00369263 
0.000915527 
0.000915527 
0.000915527 
0.000915527 
0.00012207 
0.00012207 
0.00012207 
0.00012207 

