# vtk DataFile Version 3.0
Arquivo gerado por PZ
ASCII

DATASET UNSTRUCTURED_GRID
POINTS 200 float
0 0 0
0 10 0
2 0 0
2 10 0
2 0 0
2 10 0
4 0 0
4 10 0
4 0 0
4 10 0
6 0 0
6 10 0
6 0 0
6 10 0
8 0 0
8 10 0
8 0 0
8 10 0
10 0 0
10 10 0
10 0 0
10 10 0
12 0 0
12 10 0
12 0 0
12 10 0
14 0 0
14 10 0
14 0 0
14 10 0
16 0 0
16 10 0
16 0 0
16 10 0
18 0 0
18 10 0
18 0 0
18 10 0
20 0 0
20 10 0
20 0 0
20 10 0
22 0 0
22 10 0
22 0 0
22 10 0
24 0 0
24 10 0
24 0 0
24 10 0
26 0 0
26 10 0
26 0 0
26 10 0
28 0 0
28 10 0
28 0 0
28 10 0
30 0 0
30 10 0
30 0 0
30 10 0
32 0 0
32 10 0
32 0 0
32 10 0
34 0 0
34 10 0
34 0 0
34 10 0
36 0 0
36 10 0
36 0 0
36 10 0
38 0 0
38 10 0
38 0 0
38 10 0
40 0 0
40 10 0
40 0 0
40 10 0
42 0 0
42 10 0
42 0 0
42 10 0
44 0 0
44 10 0
44 0 0
44 10 0
46 0 0
46 10 0
46 0 0
46 10 0
48 0 0
48 10 0
48 0 0
48 10 0
50 0 0
50 10 0
50 0 0
50 10 0
52 0 0
52 10 0
52 0 0
52 10 0
54 0 0
54 10 0
54 0 0
54 10 0
56 0 0
56 10 0
56 0 0
56 10 0
58 0 0
58 10 0
58 0 0
58 10 0
60 0 0
60 10 0
60 0 0
60 10 0
62 0 0
62 10 0
62 0 0
62 10 0
64 0 0
64 10 0
64 0 0
64 10 0
66 0 0
66 10 0
66 0 0
66 10 0
68 0 0
68 10 0
68 0 0
68 10 0
70 0 0
70 10 0
70 0 0
70 10 0
72 0 0
72 10 0
72 0 0
72 10 0
74 0 0
74 10 0
74 0 0
74 10 0
76 0 0
76 10 0
76 0 0
76 10 0
78 0 0
78 10 0
78 0 0
78 10 0
80 0 0
80 10 0
80 0 0
80 10 0
82 0 0
82 10 0
82 0 0
82 10 0
84 0 0
84 10 0
84 0 0
84 10 0
86 0 0
86 10 0
86 0 0
86 10 0
88 0 0
88 10 0
88 0 0
88 10 0
90 0 0
90 10 0
90 0 0
90 10 0
92 0 0
92 10 0
92 0 0
92 10 0
94 0 0
94 10 0
94 0 0
94 10 0
96 0 0
96 10 0
96 0 0
96 10 0
98 0 0
98 10 0
98 0 0
98 10 0
100 0 0
100 10 0

CELLS 50 250
4 0 2 3 1
4 4 6 7 5
4 8 10 11 9
4 12 14 15 13
4 16 18 19 17
4 20 22 23 21
4 24 26 27 25
4 28 30 31 29
4 32 34 35 33
4 36 38 39 37
4 40 42 43 41
4 44 46 47 45
4 48 50 51 49
4 52 54 55 53
4 56 58 59 57
4 60 62 63 61
4 64 66 67 65
4 68 70 71 69
4 72 74 75 73
4 76 78 79 77
4 80 82 83 81
4 84 86 87 85
4 88 90 91 89
4 92 94 95 93
4 96 98 99 97
4 100 102 103 101
4 104 106 107 105
4 108 110 111 109
4 112 114 115 113
4 116 118 119 117
4 120 122 123 121
4 124 126 127 125
4 128 130 131 129
4 132 134 135 133
4 136 138 139 137
4 140 142 143 141
4 144 146 147 145
4 148 150 151 149
4 152 154 155 153
4 156 158 159 157
4 160 162 163 161
4 164 166 167 165
4 168 170 171 169
4 172 174 175 173
4 176 178 179 177
4 180 182 183 181
4 184 186 187 185
4 188 190 191 189
4 192 194 195 193
4 196 198 199 197

CELL_TYPES 50
9
9
9
9
9
9
9
9
9
9
9
9
9
9
9
9
9
9
9
9
9
9
9
9
9
9
9
9
9
9
9
9
9
9
9
9
9
9
9
9
9
9
9
9
9
9
9
9
9
9

POINT_DATA 200
SCALARS Sw float
LOOKUP_TABLE default
6.54199e-05 
6.54199e-05 
6.54199e-05 
6.54199e-05 
9.71494e-05 
9.71494e-05 
9.71494e-05 
9.71494e-05 
0.00014356 
0.00014356 
0.00014356 
0.00014356 
0.000211066 
0.000211066 
0.000211066 
0.000211066 
0.00030869 
0.00030869 
0.00030869 
0.00030869 
0.000449024 
0.000449024 
0.000449024 
0.000449024 
0.000649502 
0.000649502 
0.000649502 
0.000649502 
0.000934051 
0.000934051 
0.000934051 
0.000934051 
0.00133522 
0.00133522 
0.00133522 
0.00133522 
0.00189685 
0.00189685 
0.00189685 
0.00189685 
0.00267743 
0.00267743 
0.00267743 
0.00267743 
0.00375409 
0.00375409 
0.00375409 
0.00375409 
0.00522741 
0.00522741 
0.00522741 
0.00522741 
0.00722692 
0.00722692 
0.00722692 
0.00722692 
0.00991716 
0.00991716 
0.00991716 
0.00991716 
0.0135042 
0.0135042 
0.0135042 
0.0135042 
0.0182417 
0.0182417 
0.0182417 
0.0182417 
0.0244369 
0.0244369 
0.0244369 
0.0244369 
0.0324543 
0.0324543 
0.0324543 
0.0324543 
0.0427166 
0.0427166 
0.0427166 
0.0427166 
0.0557014 
0.0557014 
0.0557014 
0.0557014 
0.0719325 
0.0719325 
0.0719325 
0.0719325 
0.0919624 
0.0919624 
0.0919624 
0.0919624 
0.116347 
0.116347 
0.116347 
0.116347 
0.145608 
0.145608 
0.145608 
0.145608 
0.180189 
0.180189 
0.180189 
0.180189 
0.2204 
0.2204 
0.2204 
0.2204 
0.266355 
0.266355 
0.266355 
0.266355 
0.317914 
0.317914 
0.317914 
0.317914 
0.374629 
0.374629 
0.374629 
0.374629 
0.435707 
0.435707 
0.435707 
0.435707 
0.5 
0.5 
0.5 
0.5 
0.56603 
0.56603 
0.56603 
0.56603 
0.632061 
0.632061 
0.632061 
0.632061 
0.696204 
0.696204 
0.696204 
0.696204 
0.756575 
0.756575 
0.756575 
0.756575 
0.811457 
0.811457 
0.811457 
0.811457 
0.859479 
0.859479 
0.859479 
0.859479 
0.899756 
0.899756 
0.899756 
0.899756 
0.931977 
0.931977 
0.931977 
0.931977 
0.956421 
0.956421 
0.956421 
0.956421 
0.973881 
0.973881 
0.973881 
0.973881 
0.98552 
0.98552 
0.98552 
0.98552 
0.992683 
0.992683 
0.992683 
0.992683 
0.996695 
0.996695 
0.996695 
0.996695 
0.9987 
0.9987 
0.9987 
0.9987 
0.999572 
0.999572 
0.999572 
0.999572 
0.999889 
0.999889 
0.999889 
0.999889 
0.99998 
0.99998 
0.99998 
0.99998 
0.999998 
0.999998 
0.999998 
0.999998 

SCALARS So float
LOOKUP_TABLE default
0.999935 
0.999935 
0.999935 
0.999935 
0.999903 
0.999903 
0.999903 
0.999903 
0.999856 
0.999856 
0.999856 
0.999856 
0.999789 
0.999789 
0.999789 
0.999789 
0.999691 
0.999691 
0.999691 
0.999691 
0.999551 
0.999551 
0.999551 
0.999551 
0.99935 
0.99935 
0.99935 
0.99935 
0.999066 
0.999066 
0.999066 
0.999066 
0.998665 
0.998665 
0.998665 
0.998665 
0.998103 
0.998103 
0.998103 
0.998103 
0.997323 
0.997323 
0.997323 
0.997323 
0.996246 
0.996246 
0.996246 
0.996246 
0.994773 
0.994773 
0.994773 
0.994773 
0.992773 
0.992773 
0.992773 
0.992773 
0.990083 
0.990083 
0.990083 
0.990083 
0.986496 
0.986496 
0.986496 
0.986496 
0.981758 
0.981758 
0.981758 
0.981758 
0.975563 
0.975563 
0.975563 
0.975563 
0.967546 
0.967546 
0.967546 
0.967546 
0.957283 
0.957283 
0.957283 
0.957283 
0.944299 
0.944299 
0.944299 
0.944299 
0.928067 
0.928067 
0.928067 
0.928067 
0.908038 
0.908038 
0.908038 
0.908038 
0.883653 
0.883653 
0.883653 
0.883653 
0.854392 
0.854392 
0.854392 
0.854392 
0.819811 
0.819811 
0.819811 
0.819811 
0.7796 
0.7796 
0.7796 
0.7796 
0.733645 
0.733645 
0.733645 
0.733645 
0.682086 
0.682086 
0.682086 
0.682086 
0.625371 
0.625371 
0.625371 
0.625371 
0.564293 
0.564293 
0.564293 
0.564293 
0.5 
0.5 
0.5 
0.5 
0.43397 
0.43397 
0.43397 
0.43397 
0.367939 
0.367939 
0.367939 
0.367939 
0.303796 
0.303796 
0.303796 
0.303796 
0.243425 
0.243425 
0.243425 
0.243425 
0.188543 
0.188543 
0.188543 
0.188543 
0.140521 
0.140521 
0.140521 
0.140521 
0.100244 
0.100244 
0.100244 
0.100244 
0.068023 
0.068023 
0.068023 
0.068023 
0.0435793 
0.0435793 
0.0435793 
0.0435793 
0.0261195 
0.0261195 
0.0261195 
0.0261195 
0.0144796 
0.0144796 
0.0144796 
0.0144796 
0.00731665 
0.00731665 
0.00731665 
0.00731665 
0.00330538 
0.00330538 
0.00330538 
0.00330538 
0.00129974 
0.00129974 
0.00129974 
0.00129974 
0.000427723 
0.000427723 
0.000427723 
0.000427723 
0.000110626 
0.000110626 
0.000110626 
0.000110626 
2.00272e-05 
2.00272e-05 
2.00272e-05 
2.00272e-05 
1.90735e-06 
1.90735e-06 
1.90735e-06 
1.90735e-06 

