# vtk DataFile Version 3.0
Arquivo gerado por PZ
ASCII

DATASET UNSTRUCTURED_GRID
POINTS 200 float
0 0 0
0 10 0
2 0 0
2 10 0
2 0 0
2 10 0
4 0 0
4 10 0
4 0 0
4 10 0
6 0 0
6 10 0
6 0 0
6 10 0
8 0 0
8 10 0
8 0 0
8 10 0
10 0 0
10 10 0
10 0 0
10 10 0
12 0 0
12 10 0
12 0 0
12 10 0
14 0 0
14 10 0
14 0 0
14 10 0
16 0 0
16 10 0
16 0 0
16 10 0
18 0 0
18 10 0
18 0 0
18 10 0
20 0 0
20 10 0
20 0 0
20 10 0
22 0 0
22 10 0
22 0 0
22 10 0
24 0 0
24 10 0
24 0 0
24 10 0
26 0 0
26 10 0
26 0 0
26 10 0
28 0 0
28 10 0
28 0 0
28 10 0
30 0 0
30 10 0
30 0 0
30 10 0
32 0 0
32 10 0
32 0 0
32 10 0
34 0 0
34 10 0
34 0 0
34 10 0
36 0 0
36 10 0
36 0 0
36 10 0
38 0 0
38 10 0
38 0 0
38 10 0
40 0 0
40 10 0
40 0 0
40 10 0
42 0 0
42 10 0
42 0 0
42 10 0
44 0 0
44 10 0
44 0 0
44 10 0
46 0 0
46 10 0
46 0 0
46 10 0
48 0 0
48 10 0
48 0 0
48 10 0
50 0 0
50 10 0
50 0 0
50 10 0
52 0 0
52 10 0
52 0 0
52 10 0
54 0 0
54 10 0
54 0 0
54 10 0
56 0 0
56 10 0
56 0 0
56 10 0
58 0 0
58 10 0
58 0 0
58 10 0
60 0 0
60 10 0
60 0 0
60 10 0
62 0 0
62 10 0
62 0 0
62 10 0
64 0 0
64 10 0
64 0 0
64 10 0
66 0 0
66 10 0
66 0 0
66 10 0
68 0 0
68 10 0
68 0 0
68 10 0
70 0 0
70 10 0
70 0 0
70 10 0
72 0 0
72 10 0
72 0 0
72 10 0
74 0 0
74 10 0
74 0 0
74 10 0
76 0 0
76 10 0
76 0 0
76 10 0
78 0 0
78 10 0
78 0 0
78 10 0
80 0 0
80 10 0
80 0 0
80 10 0
82 0 0
82 10 0
82 0 0
82 10 0
84 0 0
84 10 0
84 0 0
84 10 0
86 0 0
86 10 0
86 0 0
86 10 0
88 0 0
88 10 0
88 0 0
88 10 0
90 0 0
90 10 0
90 0 0
90 10 0
92 0 0
92 10 0
92 0 0
92 10 0
94 0 0
94 10 0
94 0 0
94 10 0
96 0 0
96 10 0
96 0 0
96 10 0
98 0 0
98 10 0
98 0 0
98 10 0
100 0 0
100 10 0

CELLS 50 250
4 0 2 3 1
4 4 6 7 5
4 8 10 11 9
4 12 14 15 13
4 16 18 19 17
4 20 22 23 21
4 24 26 27 25
4 28 30 31 29
4 32 34 35 33
4 36 38 39 37
4 40 42 43 41
4 44 46 47 45
4 48 50 51 49
4 52 54 55 53
4 56 58 59 57
4 60 62 63 61
4 64 66 67 65
4 68 70 71 69
4 72 74 75 73
4 76 78 79 77
4 80 82 83 81
4 84 86 87 85
4 88 90 91 89
4 92 94 95 93
4 96 98 99 97
4 100 102 103 101
4 104 106 107 105
4 108 110 111 109
4 112 114 115 113
4 116 118 119 117
4 120 122 123 121
4 124 126 127 125
4 128 130 131 129
4 132 134 135 133
4 136 138 139 137
4 140 142 143 141
4 144 146 147 145
4 148 150 151 149
4 152 154 155 153
4 156 158 159 157
4 160 162 163 161
4 164 166 167 165
4 168 170 171 169
4 172 174 175 173
4 176 178 179 177
4 180 182 183 181
4 184 186 187 185
4 188 190 191 189
4 192 194 195 193
4 196 198 199 197

CELL_TYPES 50
9
9
9
9
9
9
9
9
9
9
9
9
9
9
9
9
9
9
9
9
9
9
9
9
9
9
9
9
9
9
9
9
9
9
9
9
9
9
9
9
9
9
9
9
9
9
9
9
9
9

POINT_DATA 200
SCALARS Sw float
LOOKUP_TABLE default
2.31035e-09 
2.31035e-09 
2.31035e-09 
2.31035e-09 
3.92601e-09 
3.92601e-09 
3.92601e-09 
3.92601e-09 
6.74859e-09 
6.74859e-09 
6.74859e-09 
6.74859e-09 
1.16705e-08 
1.16705e-08 
1.16705e-08 
1.16705e-08 
2.02336e-08 
2.02336e-08 
2.02336e-08 
2.02336e-08 
3.50931e-08 
3.50931e-08 
3.50931e-08 
3.50931e-08 
6.08067e-08 
6.08067e-08 
6.08067e-08 
6.08067e-08 
1.05171e-07 
1.05171e-07 
1.05171e-07 
1.05171e-07 
1.81472e-07 
1.81472e-07 
1.81472e-07 
1.81472e-07 
3.1227e-07 
3.1227e-07 
3.1227e-07 
3.1227e-07 
5.35712e-07 
5.35712e-07 
5.35712e-07 
5.35712e-07 
9.16034e-07 
9.16034e-07 
9.16034e-07 
9.16034e-07 
1.56092e-06 
1.56092e-06 
1.56092e-06 
1.56092e-06 
2.65007e-06 
2.65007e-06 
2.65007e-06 
2.65007e-06 
4.4818e-06 
4.4818e-06 
4.4818e-06 
4.4818e-06 
7.54889e-06 
7.54889e-06 
7.54889e-06 
7.54889e-06 
1.26607e-05 
1.26607e-05 
1.26607e-05 
1.26607e-05 
2.11388e-05 
2.11388e-05 
2.11388e-05 
2.11388e-05 
3.51277e-05 
3.51277e-05 
3.51277e-05 
3.51277e-05 
5.80838e-05 
5.80838e-05 
5.80838e-05 
5.80838e-05 
9.55385e-05 
9.55385e-05 
9.55385e-05 
9.55385e-05 
0.000156276 
0.000156276 
0.000156276 
0.000156276 
0.000254131 
0.000254131 
0.000254131 
0.000254131 
0.000410698 
0.000410698 
0.000410698 
0.000410698 
0.000659364 
0.000659364 
0.000659364 
0.000659364 
0.0010512 
0.0010512 
0.0010512 
0.0010512 
0.00166345 
0.00166345 
0.00166345 
0.00166345 
0.00261144 
0.00261144 
0.00261144 
0.00261144 
0.00406503 
0.00406503 
0.00406503 
0.00406503 
0.00627048 
0.00627048 
0.00627048 
0.00627048 
0.00957865 
0.00957865 
0.00957865 
0.00957865 
0.0144796 
0.0144796 
0.0144796 
0.0144796 
0.0216426 
0.0216426 
0.0216426 
0.0216426 
0.0319573 
0.0319573 
0.0319573 
0.0319573 
0.0465698 
0.0465698 
0.0465698 
0.0465698 
0.0669003 
0.0669003 
0.0669003 
0.0669003 
0.0946236 
0.0946236 
0.0946236 
0.0946236 
0.131588 
0.131588 
0.131588 
0.131588 
0.179642 
0.179642 
0.179642 
0.179642 
0.240341 
0.240341 
0.240341 
0.240341 
0.314529 
0.314529 
0.314529 
0.314529 
0.40181 
0.40181 
0.40181 
0.40181 
0.5 
0.5 
0.5 
0.5 
0.604736 
0.604736 
0.604736 
0.604736 
0.709473 
0.709473 
0.709473 
0.709473 
0.806152 
0.806152 
0.806152 
0.806152 
0.886719 
0.886719 
0.886719 
0.886719 
0.945312 
0.945312 
0.945312 
0.945312 
0.980469 
0.980469 
0.980469 
0.980469 
0.996094 
0.996094 
0.996094 
0.996094 

SCALARS So float
LOOKUP_TABLE default
1 
1 
1 
1 
1 
1 
1 
1 
1 
1 
1 
1 
1 
1 
1 
1 
1 
1 
1 
1 
1 
1 
1 
1 
1 
1 
1 
1 
1 
1 
1 
1 
1 
1 
1 
1 
1 
1 
1 
1 
0.999999 
0.999999 
0.999999 
0.999999 
0.999999 
0.999999 
0.999999 
0.999999 
0.999998 
0.999998 
0.999998 
0.999998 
0.999997 
0.999997 
0.999997 
0.999997 
0.999996 
0.999996 
0.999996 
0.999996 
0.999992 
0.999992 
0.999992 
0.999992 
0.999987 
0.999987 
0.999987 
0.999987 
0.999979 
0.999979 
0.999979 
0.999979 
0.999965 
0.999965 
0.999965 
0.999965 
0.999942 
0.999942 
0.999942 
0.999942 
0.999904 
0.999904 
0.999904 
0.999904 
0.999844 
0.999844 
0.999844 
0.999844 
0.999746 
0.999746 
0.999746 
0.999746 
0.999589 
0.999589 
0.999589 
0.999589 
0.999341 
0.999341 
0.999341 
0.999341 
0.998949 
0.998949 
0.998949 
0.998949 
0.998337 
0.998337 
0.998337 
0.998337 
0.997389 
0.997389 
0.997389 
0.997389 
0.995935 
0.995935 
0.995935 
0.995935 
0.99373 
0.99373 
0.99373 
0.99373 
0.990421 
0.990421 
0.990421 
0.990421 
0.98552 
0.98552 
0.98552 
0.98552 
0.978357 
0.978357 
0.978357 
0.978357 
0.968043 
0.968043 
0.968043 
0.968043 
0.95343 
0.95343 
0.95343 
0.95343 
0.9331 
0.9331 
0.9331 
0.9331 
0.905376 
0.905376 
0.905376 
0.905376 
0.868412 
0.868412 
0.868412 
0.868412 
0.820358 
0.820358 
0.820358 
0.820358 
0.759659 
0.759659 
0.759659 
0.759659 
0.685471 
0.685471 
0.685471 
0.685471 
0.59819 
0.59819 
0.59819 
0.59819 
0.5 
0.5 
0.5 
0.5 
0.395264 
0.395264 
0.395264 
0.395264 
0.290527 
0.290527 
0.290527 
0.290527 
0.193848 
0.193848 
0.193848 
0.193848 
0.113281 
0.113281 
0.113281 
0.113281 
0.0546875 
0.0546875 
0.0546875 
0.0546875 
0.0195313 
0.0195313 
0.0195313 
0.0195313 
0.00390625 
0.00390625 
0.00390625 
0.00390625 

