# vtk DataFile Version 3.0
Arquivo gerado por PZ
ASCII

DATASET UNSTRUCTURED_GRID
POINTS 200 float
0 0 0
0 10 0
2 0 0
2 10 0
2 0 0
2 10 0
4 0 0
4 10 0
4 0 0
4 10 0
6 0 0
6 10 0
6 0 0
6 10 0
8 0 0
8 10 0
8 0 0
8 10 0
10 0 0
10 10 0
10 0 0
10 10 0
12 0 0
12 10 0
12 0 0
12 10 0
14 0 0
14 10 0
14 0 0
14 10 0
16 0 0
16 10 0
16 0 0
16 10 0
18 0 0
18 10 0
18 0 0
18 10 0
20 0 0
20 10 0
20 0 0
20 10 0
22 0 0
22 10 0
22 0 0
22 10 0
24 0 0
24 10 0
24 0 0
24 10 0
26 0 0
26 10 0
26 0 0
26 10 0
28 0 0
28 10 0
28 0 0
28 10 0
30 0 0
30 10 0
30 0 0
30 10 0
32 0 0
32 10 0
32 0 0
32 10 0
34 0 0
34 10 0
34 0 0
34 10 0
36 0 0
36 10 0
36 0 0
36 10 0
38 0 0
38 10 0
38 0 0
38 10 0
40 0 0
40 10 0
40 0 0
40 10 0
42 0 0
42 10 0
42 0 0
42 10 0
44 0 0
44 10 0
44 0 0
44 10 0
46 0 0
46 10 0
46 0 0
46 10 0
48 0 0
48 10 0
48 0 0
48 10 0
50 0 0
50 10 0
50 0 0
50 10 0
52 0 0
52 10 0
52 0 0
52 10 0
54 0 0
54 10 0
54 0 0
54 10 0
56 0 0
56 10 0
56 0 0
56 10 0
58 0 0
58 10 0
58 0 0
58 10 0
60 0 0
60 10 0
60 0 0
60 10 0
62 0 0
62 10 0
62 0 0
62 10 0
64 0 0
64 10 0
64 0 0
64 10 0
66 0 0
66 10 0
66 0 0
66 10 0
68 0 0
68 10 0
68 0 0
68 10 0
70 0 0
70 10 0
70 0 0
70 10 0
72 0 0
72 10 0
72 0 0
72 10 0
74 0 0
74 10 0
74 0 0
74 10 0
76 0 0
76 10 0
76 0 0
76 10 0
78 0 0
78 10 0
78 0 0
78 10 0
80 0 0
80 10 0
80 0 0
80 10 0
82 0 0
82 10 0
82 0 0
82 10 0
84 0 0
84 10 0
84 0 0
84 10 0
86 0 0
86 10 0
86 0 0
86 10 0
88 0 0
88 10 0
88 0 0
88 10 0
90 0 0
90 10 0
90 0 0
90 10 0
92 0 0
92 10 0
92 0 0
92 10 0
94 0 0
94 10 0
94 0 0
94 10 0
96 0 0
96 10 0
96 0 0
96 10 0
98 0 0
98 10 0
98 0 0
98 10 0
100 0 0
100 10 0

CELLS 50 250
4 0 2 3 1
4 4 6 7 5
4 8 10 11 9
4 12 14 15 13
4 16 18 19 17
4 20 22 23 21
4 24 26 27 25
4 28 30 31 29
4 32 34 35 33
4 36 38 39 37
4 40 42 43 41
4 44 46 47 45
4 48 50 51 49
4 52 54 55 53
4 56 58 59 57
4 60 62 63 61
4 64 66 67 65
4 68 70 71 69
4 72 74 75 73
4 76 78 79 77
4 80 82 83 81
4 84 86 87 85
4 88 90 91 89
4 92 94 95 93
4 96 98 99 97
4 100 102 103 101
4 104 106 107 105
4 108 110 111 109
4 112 114 115 113
4 116 118 119 117
4 120 122 123 121
4 124 126 127 125
4 128 130 131 129
4 132 134 135 133
4 136 138 139 137
4 140 142 143 141
4 144 146 147 145
4 148 150 151 149
4 152 154 155 153
4 156 158 159 157
4 160 162 163 161
4 164 166 167 165
4 168 170 171 169
4 172 174 175 173
4 176 178 179 177
4 180 182 183 181
4 184 186 187 185
4 188 190 191 189
4 192 194 195 193
4 196 198 199 197

CELL_TYPES 50
9
9
9
9
9
9
9
9
9
9
9
9
9
9
9
9
9
9
9
9
9
9
9
9
9
9
9
9
9
9
9
9
9
9
9
9
9
9
9
9
9
9
9
9
9
9
9
9
9
9

POINT_DATA 200
SCALARS Sw float
LOOKUP_TABLE default
6.63062e-11 
6.63062e-11 
6.63062e-11 
6.63062e-11 
6.89893e-11 
6.89893e-11 
6.89893e-11 
6.89893e-11 
7.19333e-11 
7.19333e-11 
7.19333e-11 
7.19333e-11 
7.53778e-11 
7.53778e-11 
7.53778e-11 
7.53778e-11 
7.97815e-11 
7.97815e-11 
7.97815e-11 
7.97815e-11 
8.6022e-11 
8.6022e-11 
8.6022e-11 
8.6022e-11 
9.57761e-11 
9.57761e-11 
9.57761e-11 
9.57761e-11 
1.12245e-10 
1.12245e-10 
1.12245e-10 
1.12245e-10 
1.41532e-10 
1.41532e-10 
1.41532e-10 
1.41532e-10 
1.95261e-10 
1.95261e-10 
1.95261e-10 
1.95261e-10 
2.95546e-10 
2.95546e-10 
2.95546e-10 
2.95546e-10 
4.84392e-10 
4.84392e-10 
4.84392e-10 
4.84392e-10 
8.41495e-10 
8.41495e-10 
8.41495e-10 
8.41495e-10 
1.51783e-09 
1.51783e-09 
1.51783e-09 
1.51783e-09 
2.79898e-09 
2.79898e-09 
2.79898e-09 
2.79898e-09 
5.22427e-09 
5.22427e-09 
5.22427e-09 
5.22427e-09 
9.81053e-09 
9.81053e-09 
9.81053e-09 
9.81053e-09 
1.84713e-08 
1.84713e-08 
1.84713e-08 
1.84713e-08 
3.4801e-08 
3.4801e-08 
3.4801e-08 
3.4801e-08 
6.5537e-08 
6.5537e-08 
6.5537e-08 
6.5537e-08 
1.23281e-07 
1.23281e-07 
1.23281e-07 
1.23281e-07 
2.3155e-07 
2.3155e-07 
2.3155e-07 
2.3155e-07 
4.34115e-07 
4.34115e-07 
4.34115e-07 
4.34115e-07 
8.12234e-07 
8.12234e-07 
8.12234e-07 
8.12234e-07 
1.51632e-06 
1.51632e-06 
1.51632e-06 
1.51632e-06 
2.8239e-06 
2.8239e-06 
2.8239e-06 
2.8239e-06 
5.24534e-06 
5.24534e-06 
5.24534e-06 
5.24534e-06 
9.71569e-06 
9.71569e-06 
9.71569e-06 
9.71569e-06 
1.79411e-05 
1.79411e-05 
1.79411e-05 
1.79411e-05 
3.30211e-05 
3.30211e-05 
3.30211e-05 
3.30211e-05 
6.05585e-05 
6.05585e-05 
6.05585e-05 
6.05585e-05 
0.000110626 
0.000110626 
0.000110626 
0.000110626 
0.000201225 
0.000201225 
0.000201225 
0.000201225 
0.000364304 
0.000364304 
0.000364304 
0.000364304 
0.000656128 
0.000656128 
0.000656128 
0.000656128 
0.00117493 
0.00117493 
0.00117493 
0.00117493 
0.00209045 
0.00209045 
0.00209045 
0.00209045 
0.00369263 
0.00369263 
0.00369263 
0.00369263 
0.00646973 
0.00646973 
0.00646973 
0.00646973 
0.0112305 
0.0112305 
0.0112305 
0.0112305 
0.0192871 
0.0192871 
0.0192871 
0.0192871 
0.0327148 
0.0327148 
0.0327148 
0.0327148 
0.0546875 
0.0546875 
0.0546875 
0.0546875 
0.0898437 
0.0898437 
0.0898437 
0.0898437 
0.144531 
0.144531 
0.144531 
0.144531 
0.226562 
0.226562 
0.226562 
0.226562 
0.34375 
0.34375 
0.34375 
0.34375 
0.5 
0.5 
0.5 
0.5 
0.6875 
0.6875 
0.6875 
0.6875 
0.875 
0.875 
0.875 
0.875 

SCALARS So float
LOOKUP_TABLE default
1 
1 
1 
1 
1 
1 
1 
1 
1 
1 
1 
1 
1 
1 
1 
1 
1 
1 
1 
1 
1 
1 
1 
1 
1 
1 
1 
1 
1 
1 
1 
1 
1 
1 
1 
1 
1 
1 
1 
1 
1 
1 
1 
1 
1 
1 
1 
1 
1 
1 
1 
1 
1 
1 
1 
1 
1 
1 
1 
1 
1 
1 
1 
1 
1 
1 
1 
1 
1 
1 
1 
1 
1 
1 
1 
1 
1 
1 
1 
1 
1 
1 
1 
1 
1 
1 
1 
1 
1 
1 
1 
1 
0.999999 
0.999999 
0.999999 
0.999999 
0.999998 
0.999998 
0.999998 
0.999998 
0.999997 
0.999997 
0.999997 
0.999997 
0.999995 
0.999995 
0.999995 
0.999995 
0.99999 
0.99999 
0.99999 
0.99999 
0.999982 
0.999982 
0.999982 
0.999982 
0.999967 
0.999967 
0.999967 
0.999967 
0.999939 
0.999939 
0.999939 
0.999939 
0.999889 
0.999889 
0.999889 
0.999889 
0.999799 
0.999799 
0.999799 
0.999799 
0.999636 
0.999636 
0.999636 
0.999636 
0.999344 
0.999344 
0.999344 
0.999344 
0.998825 
0.998825 
0.998825 
0.998825 
0.99791 
0.99791 
0.99791 
0.99791 
0.996307 
0.996307 
0.996307 
0.996307 
0.99353 
0.99353 
0.99353 
0.99353 
0.98877 
0.98877 
0.98877 
0.98877 
0.980713 
0.980713 
0.980713 
0.980713 
0.967285 
0.967285 
0.967285 
0.967285 
0.945313 
0.945313 
0.945313 
0.945313 
0.910156 
0.910156 
0.910156 
0.910156 
0.855469 
0.855469 
0.855469 
0.855469 
0.773438 
0.773438 
0.773438 
0.773438 
0.65625 
0.65625 
0.65625 
0.65625 
0.5 
0.5 
0.5 
0.5 
0.3125 
0.3125 
0.3125 
0.3125 
0.125 
0.125 
0.125 
0.125 

