# vtk DataFile Version 3.0
Arquivo gerado por PZ
ASCII

DATASET UNSTRUCTURED_GRID
POINTS 200 float
0 0 0
0 10 0
2 0 0
2 10 0
2 0 0
2 10 0
4 0 0
4 10 0
4 0 0
4 10 0
6 0 0
6 10 0
6 0 0
6 10 0
8 0 0
8 10 0
8 0 0
8 10 0
10 0 0
10 10 0
10 0 0
10 10 0
12 0 0
12 10 0
12 0 0
12 10 0
14 0 0
14 10 0
14 0 0
14 10 0
16 0 0
16 10 0
16 0 0
16 10 0
18 0 0
18 10 0
18 0 0
18 10 0
20 0 0
20 10 0
20 0 0
20 10 0
22 0 0
22 10 0
22 0 0
22 10 0
24 0 0
24 10 0
24 0 0
24 10 0
26 0 0
26 10 0
26 0 0
26 10 0
28 0 0
28 10 0
28 0 0
28 10 0
30 0 0
30 10 0
30 0 0
30 10 0
32 0 0
32 10 0
32 0 0
32 10 0
34 0 0
34 10 0
34 0 0
34 10 0
36 0 0
36 10 0
36 0 0
36 10 0
38 0 0
38 10 0
38 0 0
38 10 0
40 0 0
40 10 0
40 0 0
40 10 0
42 0 0
42 10 0
42 0 0
42 10 0
44 0 0
44 10 0
44 0 0
44 10 0
46 0 0
46 10 0
46 0 0
46 10 0
48 0 0
48 10 0
48 0 0
48 10 0
50 0 0
50 10 0
50 0 0
50 10 0
52 0 0
52 10 0
52 0 0
52 10 0
54 0 0
54 10 0
54 0 0
54 10 0
56 0 0
56 10 0
56 0 0
56 10 0
58 0 0
58 10 0
58 0 0
58 10 0
60 0 0
60 10 0
60 0 0
60 10 0
62 0 0
62 10 0
62 0 0
62 10 0
64 0 0
64 10 0
64 0 0
64 10 0
66 0 0
66 10 0
66 0 0
66 10 0
68 0 0
68 10 0
68 0 0
68 10 0
70 0 0
70 10 0
70 0 0
70 10 0
72 0 0
72 10 0
72 0 0
72 10 0
74 0 0
74 10 0
74 0 0
74 10 0
76 0 0
76 10 0
76 0 0
76 10 0
78 0 0
78 10 0
78 0 0
78 10 0
80 0 0
80 10 0
80 0 0
80 10 0
82 0 0
82 10 0
82 0 0
82 10 0
84 0 0
84 10 0
84 0 0
84 10 0
86 0 0
86 10 0
86 0 0
86 10 0
88 0 0
88 10 0
88 0 0
88 10 0
90 0 0
90 10 0
90 0 0
90 10 0
92 0 0
92 10 0
92 0 0
92 10 0
94 0 0
94 10 0
94 0 0
94 10 0
96 0 0
96 10 0
96 0 0
96 10 0
98 0 0
98 10 0
98 0 0
98 10 0
100 0 0
100 10 0

CELLS 50 250
4 0 2 3 1
4 4 6 7 5
4 8 10 11 9
4 12 14 15 13
4 16 18 19 17
4 20 22 23 21
4 24 26 27 25
4 28 30 31 29
4 32 34 35 33
4 36 38 39 37
4 40 42 43 41
4 44 46 47 45
4 48 50 51 49
4 52 54 55 53
4 56 58 59 57
4 60 62 63 61
4 64 66 67 65
4 68 70 71 69
4 72 74 75 73
4 76 78 79 77
4 80 82 83 81
4 84 86 87 85
4 88 90 91 89
4 92 94 95 93
4 96 98 99 97
4 100 102 103 101
4 104 106 107 105
4 108 110 111 109
4 112 114 115 113
4 116 118 119 117
4 120 122 123 121
4 124 126 127 125
4 128 130 131 129
4 132 134 135 133
4 136 138 139 137
4 140 142 143 141
4 144 146 147 145
4 148 150 151 149
4 152 154 155 153
4 156 158 159 157
4 160 162 163 161
4 164 166 167 165
4 168 170 171 169
4 172 174 175 173
4 176 178 179 177
4 180 182 183 181
4 184 186 187 185
4 188 190 191 189
4 192 194 195 193
4 196 198 199 197

CELL_TYPES 50
9
9
9
9
9
9
9
9
9
9
9
9
9
9
9
9
9
9
9
9
9
9
9
9
9
9
9
9
9
9
9
9
9
9
9
9
9
9
9
9
9
9
9
9
9
9
9
9
9
9

POINT_DATA 200
SCALARS Sw float
LOOKUP_TABLE default
0.00168612 
0.00168612 
0.00168612 
0.00168612 
0.00231315 
0.00231315 
0.00231315 
0.00231315 
0.00315491 
0.00315491 
0.00315491 
0.00315491 
0.00427727 
0.00427727 
0.00427727 
0.00427727 
0.00576321 
0.00576321 
0.00576321 
0.00576321 
0.00771615 
0.00771615 
0.00771615 
0.00771615 
0.0102635 
0.0102635 
0.0102635 
0.0102635 
0.01356 
0.01356 
0.01356 
0.01356 
0.0177914 
0.0177914 
0.0177914 
0.0177914 
0.0231767 
0.0231767 
0.0231767 
0.0231767 
0.0299706 
0.0299706 
0.0299706 
0.0299706 
0.0384629 
0.0384629 
0.0384629 
0.0384629 
0.0489772 
0.0489772 
0.0489772 
0.0489772 
0.0618657 
0.0618657 
0.0618657 
0.0618657 
0.077501 
0.077501 
0.077501 
0.077501 
0.0962632 
0.0962632 
0.0962632 
0.0962632 
0.118524 
0.118524 
0.118524 
0.118524 
0.144622 
0.144622 
0.144622 
0.144622 
0.174841 
0.174841 
0.174841 
0.174841 
0.209377 
0.209377 
0.209377 
0.209377 
0.248309 
0.248309 
0.248309 
0.248309 
0.291566 
0.291566 
0.291566 
0.291566 
0.338904 
0.338904 
0.338904 
0.338904 
0.389884 
0.389884 
0.389884 
0.389884 
0.443862 
0.443862 
0.443862 
0.443862 
0.5 
0.5 
0.5 
0.5 
0.557283 
0.557283 
0.557283 
0.557283 
0.614567 
0.614567 
0.614567 
0.614567 
0.670631 
0.670631 
0.670631 
0.670631 
0.724258 
0.724258 
0.724258 
0.724258 
0.77431 
0.77431 
0.77431 
0.77431 
0.819811 
0.819811 
0.819811 
0.819811 
0.860022 
0.860022 
0.860022 
0.860022 
0.894488 
0.894488 
0.894488 
0.894488 
0.92307 
0.92307 
0.92307 
0.92307 
0.945935 
0.945935 
0.945935 
0.945935 
0.963524 
0.963524 
0.963524 
0.963524 
0.976484 
0.976484 
0.976484 
0.976484 
0.985592 
0.985592 
0.985592 
0.985592 
0.991663 
0.991663 
0.991663 
0.991663 
0.995479 
0.995479 
0.995479 
0.995479 
0.997724 
0.997724 
0.997724 
0.997724 
0.998949 
0.998949 
0.998949 
0.998949 
0.999561 
0.999561 
0.999561 
0.999561 
0.999838 
0.999838 
0.999838 
0.999838 
0.999948 
0.999948 
0.999948 
0.999948 
0.999986 
0.999986 
0.999986 
0.999986 
0.999997 
0.999997 
0.999997 
0.999997 
1 
1 
1 
1 
1 
1 
1 
1 

SCALARS So float
LOOKUP_TABLE default
0.998314 
0.998314 
0.998314 
0.998314 
0.997687 
0.997687 
0.997687 
0.997687 
0.996845 
0.996845 
0.996845 
0.996845 
0.995723 
0.995723 
0.995723 
0.995723 
0.994237 
0.994237 
0.994237 
0.994237 
0.992284 
0.992284 
0.992284 
0.992284 
0.989737 
0.989737 
0.989737 
0.989737 
0.98644 
0.98644 
0.98644 
0.98644 
0.982209 
0.982209 
0.982209 
0.982209 
0.976823 
0.976823 
0.976823 
0.976823 
0.970029 
0.970029 
0.970029 
0.970029 
0.961537 
0.961537 
0.961537 
0.961537 
0.951023 
0.951023 
0.951023 
0.951023 
0.938134 
0.938134 
0.938134 
0.938134 
0.922499 
0.922499 
0.922499 
0.922499 
0.903737 
0.903737 
0.903737 
0.903737 
0.881476 
0.881476 
0.881476 
0.881476 
0.855378 
0.855378 
0.855378 
0.855378 
0.825159 
0.825159 
0.825159 
0.825159 
0.790623 
0.790623 
0.790623 
0.790623 
0.751691 
0.751691 
0.751691 
0.751691 
0.708434 
0.708434 
0.708434 
0.708434 
0.661096 
0.661096 
0.661096 
0.661096 
0.610116 
0.610116 
0.610116 
0.610116 
0.556138 
0.556138 
0.556138 
0.556138 
0.5 
0.5 
0.5 
0.5 
0.442717 
0.442717 
0.442717 
0.442717 
0.385433 
0.385433 
0.385433 
0.385433 
0.329369 
0.329369 
0.329369 
0.329369 
0.275742 
0.275742 
0.275742 
0.275742 
0.22569 
0.22569 
0.22569 
0.22569 
0.180189 
0.180189 
0.180189 
0.180189 
0.139978 
0.139978 
0.139978 
0.139978 
0.105512 
0.105512 
0.105512 
0.105512 
0.07693 
0.07693 
0.07693 
0.07693 
0.0540645 
0.0540645 
0.0540645 
0.0540645 
0.0364757 
0.0364757 
0.0364757 
0.0364757 
0.0235155 
0.0235155 
0.0235155 
0.0235155 
0.0144084 
0.0144084 
0.0144084 
0.0144084 
0.00833692 
0.00833692 
0.00833692 
0.00833692 
0.00452059 
0.00452059 
0.00452059 
0.00452059 
0.00227569 
0.00227569 
0.00227569 
0.00227569 
0.0010512 
0.0010512 
0.0010512 
0.0010512 
0.000438955 
0.000438955 
0.000438955 
0.000438955 
0.000162457 
0.000162457 
0.000162457 
0.000162457 
5.18579e-05 
5.18579e-05 
5.18579e-05 
5.18579e-05 
1.37202e-05 
1.37202e-05 
1.37202e-05 
1.37202e-05 
2.82377e-06 
2.82377e-06 
2.82377e-06 
2.82377e-06 
4.02331e-07 
4.02331e-07 
4.02331e-07 
4.02331e-07 
2.98021e-08 
2.98021e-08 
2.98021e-08 
2.98021e-08 

